HOOMD-blue 2.9.6 CUDA (11.1) SINGLE SSE SSE2 
Compiled: 05/10/21
Copyright (c) 2009-2019 The Regents of the University of Michigan.
-----
You are using HOOMD-blue. Please cite the following:
* J A Anderson, J Glaser, and S C Glotzer. "HOOMD-blue: A Python package for
  high-performance molecular dynamics and hard particle Monte Carlo
  simulations", Computational Materials Science 173 (2020) 109363
-----
HOOMD-blue is running on the following GPU(s):
 [0] NVIDIA A100-SXM4-80GB 108 SM_8.0 @ 1.41 GHz, 81050 MiB DRAM, MNG
Running on the GPU
Charges (in mV) are:
[-54.0, 44.0]
[95.0, 105.0]
Particle types: ['N', 'P']
Radius of N, P and ionic radii(s):  [95.0, 105.0, 99.75]
radiusN: 95.0
radiusP: 105.0
Electrostatic prefactors are:  {('N', 'N'): 299.83507046393714, ('N', 'P'): -256.52556028581284, ('P', 'P'): 220.02192305215914}
Steric prefactors are:  {('N', 'N'): 368.3741785809289, ('N', 'P'): 387.76229324308304, ('P', 'P'): 407.15040790523716}
Lattice_type:  sc
Lattice site is: P
Putting satellite particles at a distance of 286.000000 from center particles
num_satellite_per_center: 1
snapshot_creation.py:075  |      center_unit_cell = lattice(a=lattice_spacing*2*radius_latticesite)
center_in_uc: 1
satellite_in_uc: 1
Total number of particles in each unit cell: 2
Total lattice spacing: 885.78
Setting mass N: 0.740633 (mass P: 1.000000)
['P', 'N']
Total number of lattice sites: 6750
[[-6200.45996094 -6200.45996094 -6200.45996094]
 [-6200.45996094 -5914.45996094 -6200.45996094]
 [-6200.45996094 -6200.45996094 -5314.68017578]
 ...
 [ 6200.45947266  6486.46044922  5314.68017578]
 [ 6200.45947266  6200.45947266  6200.45947266]
 [ 6200.45947266  6486.46044922  6200.45947266]]
Seed positions:
None
snapshot_creation.py:172  |      system=hoomd.init.read_snapshot(snapshot)
notice(2): Group "all" created containing 6750 particles
Box size:
Box: Lx=13286.7001953125 Ly=13286.7001953125 Lz=13286.7001953125 xy=0.0 xz=0.0 yz=0.0 dimensions=3
max_x,max_y,max_z
6643.35009765625 6643.35009765625 6643.35009765625
snapshot_creation.py:183  |          hoomd.update.box_resize(Lx = 2.*max_x+8*max_radius, Ly = 2.*max_y+8*max_radius, Lz=2.*max_z+8*max_radius, period=None,scale_particles=False)
Updated box size in presence of closed walls:
Box: Lx=14126.7001953125 Ly=14126.7001953125 Lz=14126.7001953125 xy=0.0 xz=0.0 yz=0.0 dimensions=3
Number of particles in system before adding any seed crystal:  6750
Removing lattice particles that overlap with particles of the seed crystal.........
add_interactions.py:006  |  nl = hoomd.md.nlist.cell()
add_interactions.py:007  |  nl.reset_exclusions(exclusions = ['1-2', 'body','constraint'])
notice(2): -- Neighborlist exclusion statistics -- :
notice(2): Particles with 0 exclusions             : 6750
notice(2): Neighbors included by diameter          : no
notice(2): Neighbors excluded when in the same body: no
Turning on closed walls along x/y/z with max_z: 7063.35009765625
add_interactions.py:032  |      wall_force = hoomd.md.wall.slj(wall_group,r_cut=max_radius*(2.0**(1.0/6.0)))
notice(2): Notice: slj set d_max=210.0
add_interactions.py:033  |      wall_force.force_coeff.set('N',epsilon=1,sigma=radiusN,alpha=0,r_cut=radiusN*(2.0**(1.0/6.0)))
add_interactions.py:034  |      wall_force.force_coeff.set('P',epsilon=1,sigma=radiusP,alpha=0,r_cut=radiusP*(2.0**(1.0/6.0)))
add_interactions.py:057  |  table = hoomd.md.pair.table(width=5000,nlist=nl)
*******************************************************************************************************************************************************************************
Setting potential for pair ('N', 'N') with radius_sum 190.0
add_interactions.py:080  |          table.pair_coeff.set(typei,typej, func=screened_potential_shifted_force,rmin=1.00005*radius_sum, rmax=potential_range,coeff=dict(radius_sum=radius_sum, steric_prefactor=steric_prefactors[key],electrostatic_prefactor=electrostatic_prefactors[key],H=sum_brush_lengths,d=debye_length),)
*******************************************************************************************************************************************************************************
Setting potential for pair ('N', 'P') with radius_sum 200.0
add_interactions.py:080  |          table.pair_coeff.set(typei,typej, func=screened_potential_shifted_force,rmin=1.00005*radius_sum, rmax=potential_range,coeff=dict(radius_sum=radius_sum, steric_prefactor=steric_prefactors[key],electrostatic_prefactor=electrostatic_prefactors[key],H=sum_brush_lengths,d=debye_length),)
*******************************************************************************************************************************************************************************
Setting potential for pair ('P', 'P') with radius_sum 210.0
add_interactions.py:080  |          table.pair_coeff.set(typei,typej, func=screened_potential_shifted_force,rmin=1.00005*radius_sum, rmax=potential_range,coeff=dict(radius_sum=radius_sum, steric_prefactor=steric_prefactors[key],electrostatic_prefactor=electrostatic_prefactors[key],H=sum_brush_lengths,d=debye_length),)
i,j,key,potential_min, potential_min_location
(0, 0, ('N', 'N'), 0.0, 292.92199999994534)
(0, 1, ('N', 'P'), -6.300228225940963, 218.5959071999955)
(1, 1, ('P', 'P'), 1.6940658945086007e-21, 312.92200000000474)
run_dlvo_spheres_metal.py:011  |  all = hoomd.group.all()
run_dlvo_spheres_metal.py:000  |  from add_interactions import *

if temperature.find(':')>0:
    temp_list = np.array( temperature.split(':') ,dtype=float)
    assert len(temp_list)%2==0 and len(temp_list)>=0,"must give an even number of temperature arguments"
    temp_list = [tuple(x) for x in temp_list.reshape((-1,2))]
    temperature = hoomd.variant.linear_interp(points=temp_list)
else:
    temperature = float(temperature)

all = hoomd.group.all()


hoomd.analyze.log(filename=outputlogfile,
mode: langevin
run_dlvo_spheres_metal.py:029  |      hoomd.md.integrate.mode_standard(dt=dt)
run_dlvo_spheres_metal.py:030  |      ld=hoomd.md.integrate.langevin(group=all, kT=temperature, seed=seed)
notice(2): integrate.langevin/bd is using specified gamma values
Using gamma value as: 0.001
run_dlvo_spheres_metal.py:033  |          ld.set_gamma(particle_type,gamma)
run_dlvo_spheres_metal.py:033  |          ld.set_gamma(particle_type,gamma)
run_dlvo_spheres_metal.py:057  |  hoomd.dump.gsd(outputgsdfile, period=dump_frequency, group=all, overwrite=True,dynamic=['attribute','momentum','topology'])
run_dlvo_spheres_metal.py:058  |  hoomd.run(nsteps)
** starting run **
Time 00:00:10 | Step 207326 / 1000000001 | TPS 20732.5 | ETA 13:23:43
Time 00:00:20 | Step 416938 / 1000000001 | TPS 20961.2 | ETA 13:14:47
Time 00:00:30 | Step 623745 / 1000000001 | TPS 20680.7 | ETA 13:25:24
Time 00:00:40 | Step 831503 / 1000000001 | TPS 20775.7 | ETA 13:21:33
Time 00:00:50 | Step 1035622 / 1000000001 | TPS 20411.8 | ETA 13:35:40
Time 00:01:00 | Step 1241644 / 1000000001 | TPS 20602.2 | ETA 13:27:58
Time 00:01:10 | Step 1447923 / 1000000001 | TPS 20627.8 | ETA 13:26:48
Time 00:01:20 | Step 1651830 / 1000000001 | TPS 20390.7 | ETA 13:36:01
Time 00:01:30 | Step 1856729 / 1000000001 | TPS 20489.8 | ETA 13:31:54
Time 00:01:40 | Step 2061221 / 1000000001 | TPS 20449.2 | ETA 13:33:20
Time 00:01:50 | Step 2264489 / 1000000001 | TPS 20326.8 | ETA 13:38:04
Time 00:02:00 | Step 2467502 / 1000000001 | TPS 20301.3 | ETA 13:38:56
Time 00:02:10 | Step 2672567 / 1000000001 | TPS 20506.5 | ETA 13:30:34
Time 00:02:20 | Step 2878132 / 1000000001 | TPS 20556.5 | ETA 13:28:26
Time 00:02:30 | Step 3083132 / 1000000001 | TPS 20500 | ETA 13:30:30
Time 00:02:40 | Step 3288113 / 1000000001 | TPS 20498 | ETA 13:30:24
Time 00:02:50 | Step 3494480 / 1000000001 | TPS 20636.6 | ETA 13:24:48
Time 00:03:00 | Step 3699991 / 1000000001 | TPS 20551 | ETA 13:27:59
Time 00:03:10 | Step 3903688 / 1000000001 | TPS 20369.7 | ETA 13:35:00
Time 00:03:20 | Step 4107331 / 1000000001 | TPS 20364.3 | ETA 13:35:03
Time 00:03:30 | Step 4311079 / 1000000001 | TPS 20374.7 | ETA 13:34:28
Time 00:03:40 | Step 4514101 / 1000000001 | TPS 20302 | ETA 13:37:13
Time 00:03:50 | Step 4716904 / 1000000001 | TPS 20280.2 | ETA 13:37:56
Time 00:04:00 | Step 4920185 / 1000000001 | TPS 20327.9 | ETA 13:35:51
Time 00:04:10 | Step 5121901 / 1000000001 | TPS 20171.2 | ETA 13:42:01
Time 00:04:20 | Step 5324390 / 1000000001 | TPS 20248.8 | ETA 13:38:42
Time 00:04:30 | Step 5527133 / 1000000001 | TPS 20274.3 | ETA 13:37:31
Time 00:04:40 | Step 5731524 / 1000000001 | TPS 20439.1 | ETA 13:30:45
Time 00:04:50 | Step 5935823 / 1000000001 | TPS 20429.8 | ETA 13:30:57
Time 00:05:00 | Step 6139338 / 1000000001 | TPS 20351.4 | ETA 13:33:54
Time 00:05:10 | Step 6342363 / 1000000001 | TPS 20302.5 | ETA 13:35:42
Time 00:05:20 | Step 6545797 / 1000000001 | TPS 20343.2 | ETA 13:33:54
Time 00:05:30 | Step 6748285 / 1000000001 | TPS 20248.6 | ETA 13:37:32
Time 00:05:40 | Step 6951525 / 1000000001 | TPS 20324 | ETA 13:34:20
Time 00:05:50 | Step 7153703 / 1000000001 | TPS 20217.8 | ETA 13:38:27
Time 00:06:00 | Step 7355659 / 1000000001 | TPS 20195.6 | ETA 13:39:11
Time 00:06:10 | Step 7555804 / 1000000001 | TPS 20014.5 | ETA 13:46:26
Time 00:06:20 | Step 7758503 / 1000000001 | TPS 20269.9 | ETA 13:35:51
Time 00:06:30 | Step 7961953 / 1000000001 | TPS 20345 | ETA 13:32:40
Time 00:06:40 | Step 8166017 / 1000000001 | TPS 20406.2 | ETA 13:30:04
Time 00:06:50 | Step 8369173 / 1000000001 | TPS 20315.4 | ETA 13:33:31
Time 00:07:00 | Step 8572646 / 1000000001 | TPS 20347.3 | ETA 13:32:05
Time 00:07:10 | Step 8776061 / 1000000001 | TPS 20341.5 | ETA 13:32:09
Time 00:07:20 | Step 8979225 / 1000000001 | TPS 20316.4 | ETA 13:32:59
Time 00:07:30 | Step 9182621 / 1000000001 | TPS 20339.6 | ETA 13:31:53
Time 00:07:40 | Step 9384599 / 1000000001 | TPS 20197.8 | ETA 13:37:25
Time 00:07:50 | Step 9588407 / 1000000001 | TPS 20380.8 | ETA 13:29:55
Time 00:08:00 | Step 9790553 / 1000000001 | TPS 20214.6 | ETA 13:36:24
Time 00:08:10 | Step 9994358 / 1000000001 | TPS 20380.4 | ETA 13:29:36
Time 00:08:20 | Step 10196097 / 1000000001 | TPS 20173.9 | ETA 13:37:43
Time 00:08:30 | Step 10400222 / 1000000001 | TPS 20412.5 | ETA 13:28:00
Time 00:08:40 | Step 10604821 / 1000000001 | TPS 20459.9 | ETA 13:25:57
Time 00:08:50 | Step 10807500 / 1000000001 | TPS 20267.8 | ETA 13:33:26
Time 00:09:00 | Step 11009656 / 1000000001 | TPS 20215.6 | ETA 13:35:22
Time 00:09:10 | Step 11213025 / 1000000001 | TPS 20336.9 | ETA 13:30:20
Time 00:09:20 | Step 11417545 / 1000000001 | TPS 20451.9 | ETA 13:25:37
Time 00:09:30 | Step 11622249 / 1000000001 | TPS 20470.3 | ETA 13:24:43
Time 00:09:40 | Step 11825366 / 1000000001 | TPS 20311.6 | ETA 13:30:50
Time 00:09:50 | Step 12027319 / 1000000001 | TPS 20195.2 | ETA 13:35:21
Time 00:10:00 | Step 12229755 / 1000000001 | TPS 20243.5 | ETA 13:33:14
Time 00:10:10 | Step 12433174 / 1000000001 | TPS 20341.8 | ETA 13:29:08
Time 00:10:20 | Step 12634882 / 1000000001 | TPS 20170.8 | ETA 13:35:50
Time 00:10:30 | Step 12835516 / 1000000001 | TPS 20063.4 | ETA 13:40:02
Time 00:10:40 | Step 13037723 / 1000000001 | TPS 20220.7 | ETA 13:33:29
Time 00:10:50 | Step 13240234 / 1000000001 | TPS 20251.1 | ETA 13:32:06
Time 00:11:00 | Step 13444586 / 1000000001 | TPS 20435.2 | ETA 13:24:37
Time 00:11:10 | Step 13648225 / 1000000001 | TPS 20363.8 | ETA 13:27:16
Time 00:11:20 | Step 13850592 / 1000000001 | TPS 20236.7 | ETA 13:32:10
Time 00:11:30 | Step 14052447 / 1000000001 | TPS 20185.4 | ETA 13:34:04
Time 00:11:40 | Step 14256144 / 1000000001 | TPS 20369.6 | ETA 13:26:32
Time 00:11:50 | Step 14459505 / 1000000001 | TPS 20336 | ETA 13:27:42
Time 00:12:00 | Step 14661957 / 1000000001 | TPS 20245.2 | ETA 13:31:10
Time 00:12:10 | Step 14865270 / 1000000001 | TPS 20331.3 | ETA 13:27:34
Time 00:12:20 | Step 15067569 / 1000000001 | TPS 20229.8 | ETA 13:31:27
Time 00:12:30 | Step 15269638 / 1000000001 | TPS 20206.9 | ETA 13:32:12
Time 00:12:40 | Step 15471067 / 1000000001 | TPS 20142.9 | ETA 13:34:37
Time 00:12:50 | Step 15671008 / 1000000001 | TPS 19994.1 | ETA 13:40:31
Time 00:13:00 | Step 15871960 / 1000000001 | TPS 20095.2 | ETA 13:36:13
Time 00:13:10 | Step 16074788 / 1000000001 | TPS 20282.7 | ETA 13:28:30
Time 00:13:20 | Step 16275482 / 1000000001 | TPS 20069.4 | ETA 13:36:56
Time 00:13:30 | Step 16474093 / 1000000001 | TPS 19861 | ETA 13:45:20
Time 00:13:40 | Step 16673056 / 1000000001 | TPS 19896.3 | ETA 13:43:42
Time 00:13:50 | Step 16875920 / 1000000001 | TPS 20286.3 | ETA 13:27:42
Time 00:14:00 | Step 17078667 / 1000000001 | TPS 20274.7 | ETA 13:28:00
Time 00:14:10 | Step 17281527 / 1000000001 | TPS 20285.9 | ETA 13:27:23
Time 00:14:20 | Step 17484404 / 1000000001 | TPS 20287.7 | ETA 13:27:09
Time 00:14:30 | Step 17687431 / 1000000001 | TPS 20302.6 | ETA 13:26:23
Time 00:14:40 | Step 17889325 / 1000000001 | TPS 20189.2 | ETA 13:30:45
Time 00:14:50 | Step 18091597 / 1000000001 | TPS 20227.2 | ETA 13:29:03
Time 00:15:00 | Step 18293644 / 1000000001 | TPS 20204.5 | ETA 13:29:48
Time 00:15:10 | Step 18496700 / 1000000001 | TPS 20305.5 | ETA 13:25:36
Time 00:15:20 | Step 18700155 / 1000000001 | TPS 20345.4 | ETA 13:23:51
Time 00:15:30 | Step 18904282 / 1000000001 | TPS 20412.6 | ETA 13:21:03
Time 00:15:40 | Step 19108148 / 1000000001 | TPS 20386.5 | ETA 13:21:54
Time 00:15:50 | Step 19310513 / 1000000001 | TPS 20236.5 | ETA 13:27:41
Time 00:16:00 | Step 19509997 / 1000000001 | TPS 19948.2 | ETA 13:39:11
Time 00:16:10 | Step 19711165 / 1000000001 | TPS 20116.7 | ETA 13:32:10
Time 00:16:20 | Step 19912198 / 1000000001 | TPS 20103.2 | ETA 13:32:32
Time 00:16:30 | Step 20113034 / 1000000001 | TPS 20083.6 | ETA 13:33:10
Time 00:16:40 | Step 20313009 / 1000000001 | TPS 19997.5 | ETA 13:36:30
Time 00:16:50 | Step 20515403 / 1000000001 | TPS 20239.4 | ETA 13:26:34
Time 00:17:00 | Step 20718280 / 1000000001 | TPS 20287.7 | ETA 13:24:29
Time 00:17:10 | Step 20920865 / 1000000001 | TPS 20258.4 | ETA 13:25:29
Time 00:17:20 | Step 21122702 / 1000000001 | TPS 20183.6 | ETA 13:28:18
Time 00:17:30 | Step 21324527 / 1000000001 | TPS 20182.5 | ETA 13:28:11
Time 00:17:40 | Step 21528252 / 1000000001 | TPS 20372.4 | ETA 13:20:29
Time 00:17:50 | Step 21731563 / 1000000001 | TPS 20331.1 | ETA 13:21:56
Time 00:18:00 | Step 21933974 / 1000000001 | TPS 20241 | ETA 13:25:20
Time 00:18:10 | Step 22136675 / 1000000001 | TPS 20270 | ETA 13:24:01
Time 00:18:20 | Step 22338296 / 1000000001 | TPS 20162.1 | ETA 13:28:10
Time 00:18:30 | Step 22541100 / 1000000001 | TPS 20280.4 | ETA 13:23:17
Time 00:18:40 | Step 22744598 / 1000000001 | TPS 20349.7 | ETA 13:20:23
Time 00:18:50 | Step 22948054 / 1000000001 | TPS 20345.6 | ETA 13:20:22
Time 00:19:00 | Step 23149417 / 1000000001 | TPS 20136.2 | ETA 13:28:32
Time 00:19:10 | Step 23350709 / 1000000001 | TPS 20129.2 | ETA 13:28:39
Time 00:19:20 | Step 23550683 / 1000000001 | TPS 19997.4 | ETA 13:33:48
Time 00:19:30 | Step 23751581 / 1000000001 | TPS 20089.7 | ETA 13:29:54
Time 00:19:40 | Step 23953439 / 1000000001 | TPS 20185.8 | ETA 13:25:53
Time 00:19:50 | Step 24155135 / 1000000001 | TPS 20169.6 | ETA 13:26:21
Time 00:20:00 | Step 24357670 / 1000000001 | TPS 20253.5 | ETA 13:22:51
Time 00:20:10 | Step 24558988 / 1000000001 | TPS 20131.8 | ETA 13:27:32
Time 00:20:20 | Step 24761947 / 1000000001 | TPS 20295.9 | ETA 13:20:51
Time 00:20:30 | Step 24963341 / 1000000001 | TPS 20139.3 | ETA 13:26:54
Time 00:20:40 | Step 25166946 / 1000000001 | TPS 20360.4 | ETA 13:17:58
Time 00:20:50 | Step 25371193 / 1000000001 | TPS 20424.7 | ETA 13:15:18
Time 00:21:00 | Step 25574949 / 1000000001 | TPS 20375.5 | ETA 13:17:03
Time 00:21:10 | Step 25777270 / 1000000001 | TPS 20232.1 | ETA 13:22:32
Time 00:21:20 | Step 25981586 / 1000000001 | TPS 20431.5 | ETA 13:14:32
Time 00:21:30 | Step 26186142 / 1000000001 | TPS 20455.6 | ETA 13:13:26
Time 00:21:40 | Step 26388817 / 1000000001 | TPS 20267.3 | ETA 13:20:38
Time 00:21:50 | Step 26590644 / 1000000001 | TPS 20182.7 | ETA 13:23:49
Time 00:22:00 | Step 26792817 / 1000000001 | TPS 20217.2 | ETA 13:22:17
Time 00:22:10 | Step 26994138 / 1000000001 | TPS 20132.1 | ETA 13:25:31
Time 00:22:20 | Step 27197015 / 1000000001 | TPS 20287.7 | ETA 13:19:10
Time 00:22:30 | Step 27399470 / 1000000001 | TPS 20245.5 | ETA 13:20:40
Time 00:22:40 | Step 27602308 / 1000000001 | TPS 20283.6 | ETA 13:19:00
Time 00:22:50 | Step 27808114 / 1000000001 | TPS 20580.6 | ETA 13:07:18
Time 00:23:00 | Step 28010917 / 1000000001 | TPS 20280.3 | ETA 13:18:47
Time 00:23:10 | Step 28211506 / 1000000001 | TPS 20058.9 | ETA 13:27:26
Time 00:23:20 | Step 28414098 / 1000000001 | TPS 20259.2 | ETA 13:19:17
Time 00:23:30 | Step 28617138 / 1000000001 | TPS 20304 | ETA 13:17:22
Time 00:23:40 | Step 28819479 / 1000000001 | TPS 20234 | ETA 13:19:57
Time 00:23:50 | Step 29022938 / 1000000001 | TPS 20345.9 | ETA 13:15:23
Time 00:24:00 | Step 29225978 / 1000000001 | TPS 20304 | ETA 13:16:52
Time 00:24:10 | Step 29428956 / 1000000001 | TPS 20297.7 | ETA 13:16:56
Time 00:24:20 | Step 29632267 / 1000000001 | TPS 20331.1 | ETA 13:15:28
Time 00:24:30 | Step 29835445 / 1000000001 | TPS 20317.6 | ETA 13:15:49
Time 00:24:40 | Step 30037937 / 1000000001 | TPS 20249.1 | ETA 13:18:21
Time 00:24:50 | Step 30236007 / 1000000001 | TPS 19807 | ETA 13:36:00
Time 00:25:00 | Step 30433518 / 1000000001 | TPS 19751 | ETA 13:38:09
Time 00:25:10 | Step 30631230 / 1000000001 | TPS 19771.1 | ETA 13:37:09
Time 00:25:20 | Step 30832669 / 1000000001 | TPS 20143.7 | ETA 13:21:52
Time 00:25:30 | Step 31034110 / 1000000001 | TPS 20144.1 | ETA 13:21:41
Time 00:25:40 | Step 31237656 / 1000000001 | TPS 20354.6 | ETA 13:13:14
Time 00:25:50 | Step 31439615 / 1000000001 | TPS 20195.9 | ETA 13:19:18
Time 00:26:00 | Step 31641781 / 1000000001 | TPS 20216.4 | ETA 13:18:19
Time 00:26:10 | Step 31844406 / 1000000001 | TPS 20262.4 | ETA 13:16:20
Time 00:26:20 | Step 32045393 / 1000000001 | TPS 20098.7 | ETA 13:22:40
Time 00:26:30 | Step 32246421 / 1000000001 | TPS 20102.7 | ETA 13:22:20
Time 00:26:40 | Step 32447721 / 1000000001 | TPS 20129.9 | ETA 13:21:05
Time 00:26:50 | Step 32651696 / 1000000001 | TPS 20397.4 | ETA 13:10:25
Time 00:27:00 | Step 32856373 / 1000000001 | TPS 20467.6 | ETA 13:07:32
Time 00:27:10 | Step 33059596 / 1000000001 | TPS 20322.2 | ETA 13:13:00
Time 00:27:20 | Step 33264035 / 1000000001 | TPS 20443.9 | ETA 13:08:07
Time 00:27:30 | Step 33466791 / 1000000001 | TPS 20275.5 | ETA 13:14:29
Time 00:27:40 | Step 33670015 / 1000000001 | TPS 20322.4 | ETA 13:12:30
Time 00:27:50 | Step 33873414 / 1000000001 | TPS 20339.8 | ETA 13:11:39
Time 00:28:00 | Step 34077372 / 1000000001 | TPS 20395.8 | ETA 13:09:18
Time 00:28:10 | Step 34280635 / 1000000001 | TPS 20326.2 | ETA 13:11:50
Time 00:28:20 | Step 34483760 / 1000000001 | TPS 20312.5 | ETA 13:12:13
Time 00:28:30 | Step 34687148 / 1000000001 | TPS 20338.8 | ETA 13:11:01
Time 00:28:40 | Step 34891300 / 1000000001 | TPS 20415.1 | ETA 13:07:54
Time 00:28:50 | Step 35094653 / 1000000001 | TPS 20335.2 | ETA 13:10:49
Time 00:29:00 | Step 35297441 / 1000000001 | TPS 20278.7 | ETA 13:12:52
Time 00:29:10 | Step 35500072 / 1000000001 | TPS 20263 | ETA 13:13:18
Time 00:29:20 | Step 35702572 / 1000000001 | TPS 20250 | ETA 13:13:39
Time 00:29:30 | Step 35905179 / 1000000001 | TPS 20260.6 | ETA 13:13:04
Time 00:29:40 | Step 36106359 / 1000000001 | TPS 20118 | ETA 13:18:32
Time 00:29:50 | Step 36308565 / 1000000001 | TPS 20220.6 | ETA 13:14:19
Time 00:30:00 | Step 36510750 / 1000000001 | TPS 20218.5 | ETA 13:14:13
Time 00:30:10 | Step 36712366 / 1000000001 | TPS 20161.5 | ETA 13:16:18
Time 00:30:20 | Step 36913642 / 1000000001 | TPS 20127.5 | ETA 13:17:29
Time 00:30:30 | Step 37114067 / 1000000001 | TPS 20042.5 | ETA 13:20:42
Time 00:30:40 | Step 37315139 / 1000000001 | TPS 20107.1 | ETA 13:17:57
Time 00:30:50 | Step 37515312 / 1000000001 | TPS 20017.2 | ETA 13:21:22
Time 00:31:00 | Step 37714958 / 1000000001 | TPS 19964.5 | ETA 13:23:19
Time 00:31:10 | Step 37914311 / 1000000001 | TPS 19935.3 | ETA 13:24:20
Time 00:31:20 | Step 38115194 / 1000000001 | TPS 20088.2 | ETA 13:18:03
Time 00:31:30 | Step 38317621 / 1000000001 | TPS 20242.5 | ETA 13:11:48
Time 00:31:40 | Step 38519549 / 1000000001 | TPS 20192.7 | ETA 13:13:35
Time 00:31:50 | Step 38721242 / 1000000001 | TPS 20169.3 | ETA 13:14:20
Time 00:32:00 | Step 38924731 / 1000000001 | TPS 20348.9 | ETA 13:07:09
Time 00:32:10 | Step 39127125 / 1000000001 | TPS 20239.3 | ETA 13:11:15
Time 00:32:20 | Step 39330566 / 1000000001 | TPS 20344.1 | ETA 13:07:01
Time 00:32:30 | Step 39533876 / 1000000001 | TPS 20331 | ETA 13:07:21
Time 00:32:40 | Step 39735701 / 1000000001 | TPS 20182.5 | ETA 13:12:59
Time 00:32:50 | Step 39937709 / 1000000001 | TPS 20200.7 | ETA 13:12:06
Time 00:33:00 | Step 40139671 / 1000000001 | TPS 20196.1 | ETA 13:12:06
Time 00:33:10 | Step 40343619 / 1000000001 | TPS 20394.8 | ETA 13:04:14
Time 00:33:20 | Step 40546041 / 1000000001 | TPS 20242.2 | ETA 13:09:58
Time 00:33:30 | Step 40749710 / 1000000001 | TPS 20366.9 | ETA 13:04:58
Time 00:33:40 | Step 40952071 / 1000000001 | TPS 20235.9 | ETA 13:09:53
Time 00:33:50 | Step 41154669 / 1000000001 | TPS 20259.7 | ETA 13:08:47
Time 00:34:00 | Step 41356902 / 1000000001 | TPS 20223.3 | ETA 13:10:03
Time 00:34:10 | Step 41559975 / 1000000001 | TPS 20307.3 | ETA 13:06:36
Time 00:34:20 | Step 41763006 / 1000000001 | TPS 20303.1 | ETA 13:06:36
Time 00:34:30 | Step 41965378 / 1000000001 | TPS 20237.2 | ETA 13:09:00
Time 00:34:40 | Step 42167359 / 1000000001 | TPS 20198 | ETA 13:10:22
Time 00:34:50 | Step 42369574 / 1000000001 | TPS 20221.5 | ETA 13:09:17
Time 00:35:00 | Step 42571058 / 1000000001 | TPS 20148.4 | ETA 13:11:58
Time 00:35:10 | Step 42773506 / 1000000001 | TPS 20244.8 | ETA 13:08:02
Time 00:35:20 | Step 42975910 / 1000000001 | TPS 20240.3 | ETA 13:08:03
Time 00:35:30 | Step 43177512 / 1000000001 | TPS 20160.2 | ETA 13:11:01
Time 00:35:40 | Step 43378199 / 1000000001 | TPS 20068.6 | ETA 13:14:27
Time 00:35:50 | Step 43579255 / 1000000001 | TPS 20105.5 | ETA 13:12:50
Time 00:36:00 | Step 43781249 / 1000000001 | TPS 20199.3 | ETA 13:08:59
Time 00:36:10 | Step 43983716 / 1000000001 | TPS 20246.7 | ETA 13:06:58
Time 00:36:20 | Step 44184753 / 1000000001 | TPS 20103.6 | ETA 13:12:24
Time 00:36:30 | Step 44386562 / 1000000001 | TPS 20180.8 | ETA 13:09:12
Time 00:36:40 | Step 44588442 / 1000000001 | TPS 20188 | ETA 13:08:45
Time 00:36:50 | Step 44791108 / 1000000001 | TPS 20266.6 | ETA 13:05:32
Time 00:37:00 | Step 44992618 / 1000000001 | TPS 20150.9 | ETA 13:09:52
Time 00:37:10 | Step 45194183 / 1000000001 | TPS 20156.5 | ETA 13:09:29
Time 00:37:20 | Step 45395455 / 1000000001 | TPS 20127.2 | ETA 13:10:28
Time 00:37:30 | Step 45597889 / 1000000001 | TPS 20243.2 | ETA 13:05:46
Time 00:37:40 | Step 45801456 / 1000000001 | TPS 20356.7 | ETA 13:01:13
Time 00:37:50 | Step 46003796 / 1000000001 | TPS 20234 | ETA 13:05:48
Time 00:38:00 | Step 46205272 / 1000000001 | TPS 20147.6 | ETA 13:09:00
Time 00:38:10 | Step 46406848 / 1000000001 | TPS 20157.5 | ETA 13:08:27
Time 00:38:20 | Step 46608884 / 1000000001 | TPS 20203.6 | ETA 13:06:29
Time 00:38:30 | Step 46812104 / 1000000001 | TPS 20322 | ETA 13:01:44
Time 00:38:40 | Step 47014727 / 1000000001 | TPS 20262.3 | ETA 13:03:52
Time 00:38:50 | Step 47217574 / 1000000001 | TPS 20284.7 | ETA 13:02:50
Time 00:39:00 | Step 47421345 / 1000000001 | TPS 20377 | ETA 12:59:07
Time 00:39:10 | Step 47624002 / 1000000001 | TPS 20265.7 | ETA 13:03:14
Time 00:39:20 | Step 47827055 / 1000000001 | TPS 20305.3 | ETA 13:01:32
Time 00:39:30 | Step 48030463 / 1000000001 | TPS 20340.8 | ETA 13:00:01
Time 00:39:40 | Step 48233989 / 1000000001 | TPS 20352.4 | ETA 12:59:24
Time 00:39:50 | Step 48435807 / 1000000001 | TPS 20181.8 | ETA 13:05:49
Time 00:40:00 | Step 48639163 / 1000000001 | TPS 20335.5 | ETA 12:59:43
Time 00:40:10 | Step 48841894 / 1000000001 | TPS 20273 | ETA 13:01:57
Time 00:40:20 | Step 49043904 / 1000000001 | TPS 20201 | ETA 13:04:34
Time 00:40:30 | Step 49246951 / 1000000001 | TPS 20304.7 | ETA 13:00:24
Time 00:40:40 | Step 49448887 / 1000000001 | TPS 20193.6 | ETA 13:04:31
Time 00:40:50 | Step 49650622 / 1000000001 | TPS 20173.5 | ETA 13:05:08
Time 00:41:00 | Step 49853545 / 1000000001 | TPS 20292.2 | ETA 13:00:23
Time 00:41:10 | Step 50054039 / 1000000001 | TPS 20049.3 | ETA 13:09:40
Time 00:41:20 | Step 50255019 / 1000000001 | TPS 20097.9 | ETA 13:07:35
Time 00:41:30 | Step 50456140 / 1000000001 | TPS 20112.1 | ETA 13:06:52
Time 00:41:40 | Step 50657369 / 1000000001 | TPS 20122.8 | ETA 13:06:17
Time 00:41:50 | Step 50858037 / 1000000001 | TPS 20066.8 | ETA 13:08:19
Time 00:42:00 | Step 51060177 / 1000000001 | TPS 20213.8 | ETA 13:02:25
Time 00:42:10 | Step 51261597 / 1000000001 | TPS 20141.9 | ETA 13:05:02
Time 00:42:20 | Step 51463221 / 1000000001 | TPS 20162.3 | ETA 13:04:04
Time 00:42:30 | Step 51666298 / 1000000001 | TPS 20307.7 | ETA 12:58:18
Time 00:42:40 | Step 51870649 / 1000000001 | TPS 20434.9 | ETA 12:53:17
Time 00:42:50 | Step 52074025 / 1000000001 | TPS 20337.4 | ETA 12:56:49
Time 00:43:00 | Step 52275078 / 1000000001 | TPS 20105.2 | ETA 13:05:38
Time 00:43:10 | Step 52478257 / 1000000001 | TPS 20317.8 | ETA 12:57:15
Time 00:43:20 | Step 52682488 / 1000000001 | TPS 20423.1 | ETA 12:53:04
Time 00:43:30 | Step 52883741 / 1000000001 | TPS 20125.3 | ETA 13:04:21
Time 00:43:40 | Step 53085536 / 1000000001 | TPS 20179.5 | ETA 13:02:04
Time 00:43:50 | Step 53286913 / 1000000001 | TPS 20137.7 | ETA 13:03:32
Time 00:44:00 | Step 53488634 / 1000000001 | TPS 20172.1 | ETA 13:02:01
Time 00:44:10 | Step 53690754 / 1000000001 | TPS 20212 | ETA 13:00:19
Time 00:44:20 | Step 53890097 / 1000000001 | TPS 19934.1 | ETA 13:11:01
Time 00:44:30 | Step 54087755 / 1000000001 | TPS 19765.8 | ETA 13:17:36
Time 00:44:40 | Step 54288871 / 1000000001 | TPS 20111.6 | ETA 13:03:43
Time 00:44:50 | Step 54491679 / 1000000001 | TPS 20280.8 | ETA 12:57:00
Time 00:45:00 | Step 54694862 / 1000000001 | TPS 20318.3 | ETA 12:55:24
Time 00:45:10 | Step 54897266 / 1000000001 | TPS 20240.4 | ETA 12:58:13
Time 00:45:20 | Step 55100537 / 1000000001 | TPS 20326.9 | ETA 12:54:45
Time 00:45:30 | Step 55303314 / 1000000001 | TPS 20277.7 | ETA 12:56:27
Time 00:45:40 | Step 55506901 / 1000000001 | TPS 20358.6 | ETA 12:53:12
Time 00:45:50 | Step 55709416 / 1000000001 | TPS 20251.5 | ETA 12:57:08
Time 00:46:00 | Step 55910009 / 1000000001 | TPS 20059.1 | ETA 13:04:25
Time 00:46:10 | Step 56107677 / 1000000001 | TPS 19766.7 | ETA 13:15:51
Time 00:46:20 | Step 56307038 / 1000000001 | TPS 19936.1 | ETA 13:08:55
Time 00:46:30 | Step 56508541 / 1000000001 | TPS 20150.1 | ETA 13:00:23
Time 00:46:40 | Step 56711372 / 1000000001 | TPS 20283.1 | ETA 12:55:06
Time 00:46:50 | Step 56913319 / 1000000001 | TPS 20194.5 | ETA 12:58:20
Time 00:47:00 | Step 57114446 / 1000000001 | TPS 20112.7 | ETA 13:01:20
Time 00:47:10 | Step 57315813 / 1000000001 | TPS 20136.6 | ETA 13:00:14
Time 00:47:20 | Step 57518680 / 1000000001 | TPS 20286.7 | ETA 12:54:18
Time 00:47:30 | Step 57719600 / 1000000001 | TPS 20091.9 | ETA 13:01:38
Time 00:47:40 | Step 57921147 / 1000000001 | TPS 20154.6 | ETA 12:59:02
Time 00:47:50 | Step 58123716 / 1000000001 | TPS 20256.8 | ETA 12:54:56
Time 00:48:00 | Step 58326011 / 1000000001 | TPS 20229.4 | ETA 12:55:49
Time 00:48:10 | Step 58529736 / 1000000001 | TPS 20372.5 | ETA 12:50:12
Time 00:48:20 | Step 58732167 / 1000000001 | TPS 20242.9 | ETA 12:54:58
Time 00:48:30 | Step 58933038 / 1000000001 | TPS 20087.1 | ETA 13:00:49
Time 00:48:40 | Step 59134925 / 1000000001 | TPS 20188.7 | ETA 12:56:43
Time 00:48:50 | Step 59337962 / 1000000001 | TPS 20303.7 | ETA 12:52:09
Time 00:49:00 | Step 59541162 / 1000000001 | TPS 20319.9 | ETA 12:51:22
Time 00:49:10 | Step 59743572 / 1000000001 | TPS 20241 | ETA 12:54:13
Time 00:49:20 | Step 59944789 / 1000000001 | TPS 20121.6 | ETA 12:58:38
Time 00:49:30 | Step 60146654 / 1000000001 | TPS 20186.5 | ETA 12:55:58
Time 00:49:40 | Step 60349999 / 1000000001 | TPS 20334.5 | ETA 12:50:09
Time 00:49:50 | Step 60553272 / 1000000001 | TPS 20327.3 | ETA 12:50:16
Time 00:50:00 | Step 60754682 / 1000000001 | TPS 20141 | ETA 12:57:13
Time 00:50:10 | Step 60956576 / 1000000001 | TPS 20189.3 | ETA 12:55:11
Time 00:50:20 | Step 61159904 / 1000000001 | TPS 20332.8 | ETA 12:49:33
Time 00:50:30 | Step 61364051 / 1000000001 | TPS 20414.7 | ETA 12:46:18
Time 00:50:40 | Step 61566732 / 1000000001 | TPS 20268.1 | ETA 12:51:41
Time 00:50:50 | Step 61769373 / 1000000001 | TPS 20264 | ETA 12:51:40
Time 00:51:00 | Step 61971866 / 1000000001 | TPS 20249.2 | ETA 12:52:04
Time 00:51:10 | Step 62174712 / 1000000001 | TPS 20284.6 | ETA 12:50:33
Time 00:51:20 | Step 62375952 / 1000000001 | TPS 20124 | ETA 12:56:32
Time 00:51:30 | Step 62579028 / 1000000001 | TPS 20307.6 | ETA 12:49:21
Time 00:51:40 | Step 62781879 / 1000000001 | TPS 20284.9 | ETA 12:50:02
Time 00:51:50 | Step 62985999 / 1000000001 | TPS 20411.9 | ETA 12:45:05
Time 00:52:00 | Step 63189405 / 1000000001 | TPS 20340.4 | ETA 12:47:36
Time 00:52:10 | Step 63391274 / 1000000001 | TPS 20186.9 | ETA 12:53:16
Time 00:52:20 | Step 63593599 / 1000000001 | TPS 20232.5 | ETA 12:51:22
Time 00:52:30 | Step 63796968 / 1000000001 | TPS 20336.8 | ETA 12:47:14
Time 00:52:40 | Step 63999937 / 1000000001 | TPS 20296.8 | ETA 12:48:35
Time 00:52:50 | Step 64201886 / 1000000001 | TPS 20194.9 | ETA 12:52:18
Time 00:53:00 | Step 64405076 / 1000000001 | TPS 20319 | ETA 12:47:25
Time 00:53:10 | Step 64608530 / 1000000001 | TPS 20345.3 | ETA 12:46:15
Time 00:53:20 | Step 64811306 / 1000000001 | TPS 20277.5 | ETA 12:48:39
Time 00:53:30 | Step 65014612 / 1000000001 | TPS 20330.5 | ETA 12:46:29
Time 00:53:40 | Step 65218993 / 1000000001 | TPS 20437.9 | ETA 12:42:17
Time 00:53:50 | Step 65422515 / 1000000001 | TPS 20352.1 | ETA 12:45:20
Time 00:54:00 | Step 65624492 / 1000000001 | TPS 20197.7 | ETA 12:51:01
Time 00:54:10 | Step 65827151 / 1000000001 | TPS 20265.9 | ETA 12:48:15
Time 00:54:20 | Step 66029228 / 1000000001 | TPS 20207.7 | ETA 12:50:18
Time 00:54:30 | Step 66231958 / 1000000001 | TPS 20273 | ETA 12:47:39
Time 00:54:40 | Step 66433272 / 1000000001 | TPS 20131.3 | ETA 12:52:53
Time 00:54:50 | Step 66635089 / 1000000001 | TPS 20181.5 | ETA 12:50:48
Time 00:55:00 | Step 66837934 / 1000000001 | TPS 20284.4 | ETA 12:46:43
Time 00:55:10 | Step 67041309 / 1000000001 | TPS 20337.4 | ETA 12:44:34
Time 00:55:20 | Step 67244089 / 1000000001 | TPS 20278 | ETA 12:46:38
Time 00:55:30 | Step 67446281 / 1000000001 | TPS 20219.2 | ETA 12:48:42
Time 00:55:40 | Step 67648150 / 1000000001 | TPS 20186.9 | ETA 12:49:46
Time 00:55:50 | Step 67850658 / 1000000001 | TPS 20250.7 | ETA 12:47:10
Time 00:56:00 | Step 68053434 / 1000000001 | TPS 20277.5 | ETA 12:45:59
Time 00:56:10 | Step 68256299 / 1000000001 | TPS 20286.4 | ETA 12:45:29
Time 00:56:20 | Step 68458601 / 1000000001 | TPS 20230.1 | ETA 12:47:27
Time 00:56:30 | Step 68662888 / 1000000001 | TPS 20428.6 | ETA 12:39:49
Time 00:56:40 | Step 68866580 / 1000000001 | TPS 20369.2 | ETA 12:41:52
Time 00:56:50 | Step 69070032 / 1000000001 | TPS 20345.2 | ETA 12:42:36
Time 00:57:00 | Step 69273716 / 1000000001 | TPS 20368.3 | ETA 12:41:34
Time 00:57:10 | Step 69476577 / 1000000001 | TPS 20285.9 | ETA 12:44:30
Time 00:57:20 | Step 69678561 / 1000000001 | TPS 20198.3 | ETA 12:47:39
Time 00:57:30 | Step 69882312 / 1000000001 | TPS 20375.1 | ETA 12:40:49
Time 00:57:40 | Step 70084821 / 1000000001 | TPS 20250.8 | ETA 12:45:19
Time 00:57:50 | Step 70287674 / 1000000001 | TPS 20285.2 | ETA 12:43:52
Time 00:58:00 | Step 70490098 / 1000000001 | TPS 20242.4 | ETA 12:45:18
Time 00:58:10 | Step 70691756 / 1000000001 | TPS 20165.8 | ETA 12:48:03
Time 00:58:20 | Step 70894833 / 1000000001 | TPS 20307.6 | ETA 12:42:31
Time 00:58:30 | Step 71097817 / 1000000001 | TPS 20298.2 | ETA 12:42:42
Time 00:58:40 | Step 71302686 / 1000000001 | TPS 20486.8 | ETA 12:35:31
Time 00:58:50 | Step 71506081 / 1000000001 | TPS 20339.5 | ETA 12:40:49
Time 00:59:00 | Step 71708713 / 1000000001 | TPS 20263.1 | ETA 12:43:31
Time 00:59:10 | Step 71911875 / 1000000001 | TPS 20316.2 | ETA 12:41:22
Time 00:59:20 | Step 72113208 / 1000000001 | TPS 20133.2 | ETA 12:48:07
Time 00:59:30 | Step 72316006 / 1000000001 | TPS 20279.8 | ETA 12:42:24
Time 00:59:40 | Step 72518276 / 1000000001 | TPS 20227 | ETA 12:44:13
Time 00:59:50 | Step 72721271 / 1000000001 | TPS 20299.5 | ETA 12:41:19
Time 01:00:00 | Step 72924458 / 1000000001 | TPS 20318.6 | ETA 12:40:26
Time 01:00:10 | Step 73127422 / 1000000001 | TPS 20296.3 | ETA 12:41:06
Time 01:00:20 | Step 73329775 / 1000000001 | TPS 20235.3 | ETA 12:43:14
Time 01:00:30 | Step 73533644 / 1000000001 | TPS 20386.9 | ETA 12:37:24
Time 01:00:40 | Step 73738417 / 1000000001 | TPS 20477.2 | ETA 12:33:53
Time 01:00:50 | Step 73941533 / 1000000001 | TPS 20311.6 | ETA 12:39:52
Time 01:01:00 | Step 74143342 / 1000000001 | TPS 20180.8 | ETA 12:44:38
Time 01:01:10 | Step 74345229 / 1000000001 | TPS 20188.6 | ETA 12:44:10
Time 01:01:20 | Step 74547483 / 1000000001 | TPS 20225.2 | ETA 12:42:37
Time 01:01:30 | Step 74748597 / 1000000001 | TPS 20111.4 | ETA 12:46:46
Time 01:01:40 | Step 74951762 / 1000000001 | TPS 20316.4 | ETA 12:38:52
Time 01:01:50 | Step 75154943 / 1000000001 | TPS 20318.1 | ETA 12:38:38
Time 01:02:00 | Step 75357543 / 1000000001 | TPS 20259.9 | ETA 12:40:38
Time 01:02:10 | Step 75560353 / 1000000001 | TPS 20281 | ETA 12:39:41
Time 01:02:20 | Step 75762582 / 1000000001 | TPS 20222.9 | ETA 12:41:42
Time 01:02:30 | Step 75964888 / 1000000001 | TPS 20230.6 | ETA 12:41:15
Time 01:02:40 | Step 76167287 / 1000000001 | TPS 20239.8 | ETA 12:40:44
Time 01:02:50 | Step 76370633 / 1000000001 | TPS 20334.6 | ETA 12:37:01
Time 01:03:00 | Step 76572582 / 1000000001 | TPS 20194.8 | ETA 12:42:05
Time 01:03:10 | Step 76777008 / 1000000001 | TPS 20442.5 | ETA 12:32:41
Time 01:03:20 | Step 76980213 / 1000000001 | TPS 20320.5 | ETA 12:37:03
Time 01:03:30 | Step 77182521 / 1000000001 | TPS 20230.8 | ETA 12:40:14
Time 01:03:40 | Step 77387296 / 1000000001 | TPS 20477.5 | ETA 12:30:55
Time 01:03:50 | Step 77590203 / 1000000001 | TPS 20290.7 | ETA 12:37:39
Time 01:04:00 | Step 77792798 / 1000000001 | TPS 20259.5 | ETA 12:38:39
Time 01:04:10 | Step 77996539 / 1000000001 | TPS 20374.1 | ETA 12:34:13
Time 01:04:20 | Step 78198107 / 1000000001 | TPS 20156.8 | ETA 12:42:11
Time 01:04:30 | Step 78398130 / 1000000001 | TPS 20002.3 | ETA 12:47:54
Time 01:04:40 | Step 78600072 / 1000000001 | TPS 20194.1 | ETA 12:40:27
Time 01:04:50 | Step 78802359 / 1000000001 | TPS 20228.7 | ETA 12:38:59
Time 01:05:00 | Step 79006174 / 1000000001 | TPS 20381.4 | ETA 12:33:07
Time 01:05:10 | Step 79209073 / 1000000001 | TPS 20289.9 | ETA 12:36:21
Time 01:05:20 | Step 79412137 / 1000000001 | TPS 20306.4 | ETA 12:35:34
Time 01:05:30 | Step 79614881 / 1000000001 | TPS 20274.3 | ETA 12:36:36
Time 01:05:40 | Step 79817638 / 1000000001 | TPS 20275.6 | ETA 12:36:23
Time 01:05:50 | Step 80019267 / 1000000001 | TPS 20162.9 | ETA 12:40:27
Time 01:06:00 | Step 80222194 / 1000000001 | TPS 20292.6 | ETA 12:35:25
Time 01:06:10 | Step 80424284 / 1000000001 | TPS 20209 | ETA 12:38:23
Time 01:06:20 | Step 80627740 / 1000000001 | TPS 20345.6 | ETA 12:33:07
Time 01:06:30 | Step 80830462 / 1000000001 | TPS 20272.1 | ETA 12:35:41
Time 01:06:40 | Step 81032305 / 1000000001 | TPS 20184.3 | ETA 12:38:48
Time 01:06:50 | Step 81234517 / 1000000001 | TPS 20221.1 | ETA 12:37:15
Time 01:07:00 | Step 81436881 / 1000000001 | TPS 20236.3 | ETA 12:36:31
Time 01:07:10 | Step 81638339 / 1000000001 | TPS 20145.7 | ETA 12:39:45
Time 01:07:20 | Step 81840130 / 1000000001 | TPS 20179.1 | ETA 12:38:20
Time 01:07:30 | Step 82041899 / 1000000001 | TPS 20176.9 | ETA 12:38:15
Time 01:07:40 | Step 82242890 / 1000000001 | TPS 20099 | ETA 12:41:01
Time 01:07:50 | Step 82443505 / 1000000001 | TPS 20061.4 | ETA 12:42:17
Time 01:08:00 | Step 82645589 / 1000000001 | TPS 20208.4 | ETA 12:36:34
Time 01:08:10 | Step 82848182 / 1000000001 | TPS 20259.3 | ETA 12:34:30
Time 01:08:20 | Step 83046732 / 1000000001 | TPS 19855 | ETA 12:49:42
Time 01:08:30 | Step 83247894 / 1000000001 | TPS 20116.2 | ETA 12:39:32
Time 01:08:40 | Step 83448699 / 1000000001 | TPS 20080.5 | ETA 12:40:43
Time 01:08:50 | Step 83650968 / 1000000001 | TPS 20226.8 | ETA 12:35:03
Time 01:09:00 | Step 83852806 / 1000000001 | TPS 20183.7 | ETA 12:36:30
Time 01:09:10 | Step 84054694 / 1000000001 | TPS 20188.8 | ETA 12:36:09
Time 01:09:20 | Step 84257304 / 1000000001 | TPS 20261 | ETA 12:33:17
Time 01:09:30 | Step 84460726 / 1000000001 | TPS 20342.1 | ETA 12:30:07
Time 01:09:40 | Step 84664317 / 1000000001 | TPS 20359.1 | ETA 12:29:19
Time 01:09:50 | Step 84865836 / 1000000001 | TPS 20151.9 | ETA 12:36:51
Time 01:10:00 | Step 85069357 / 1000000001 | TPS 20352.1 | ETA 12:29:15
Time 01:10:10 | Step 85272329 / 1000000001 | TPS 20297.2 | ETA 12:31:06
Time 01:10:20 | Step 85476178 / 1000000001 | TPS 20384.9 | ETA 12:27:42
Time 01:10:30 | Step 85678670 / 1000000001 | TPS 20249.2 | ETA 12:32:33
Time 01:10:40 | Step 85880885 / 1000000001 | TPS 20221.5 | ETA 12:33:25
Time 01:10:50 | Step 86084221 / 1000000001 | TPS 20333.5 | ETA 12:29:06
Time 01:11:00 | Step 86285427 / 1000000001 | TPS 20120.6 | ETA 12:36:51
Time 01:11:10 | Step 86487185 / 1000000001 | TPS 20175.7 | ETA 12:34:37
Time 01:11:20 | Step 86688662 / 1000000001 | TPS 20147.7 | ETA 12:35:30
Time 01:11:30 | Step 86889585 / 1000000001 | TPS 20092.3 | ETA 12:37:25
Time 01:11:40 | Step 87092345 / 1000000001 | TPS 20275.9 | ETA 12:30:24
Time 01:11:50 | Step 87296164 / 1000000001 | TPS 20381.7 | ETA 12:26:20
Time 01:12:00 | Step 87501422 / 1000000001 | TPS 20525.7 | ETA 12:20:56
Time 01:12:10 | Step 87704483 / 1000000001 | TPS 20306 | ETA 12:28:47
Time 01:12:20 | Step 87906099 / 1000000001 | TPS 20161.6 | ETA 12:33:59
Time 01:12:30 | Step 88106123 / 1000000001 | TPS 20002.3 | ETA 12:39:49
Time 01:12:40 | Step 88309555 / 1000000001 | TPS 20343.1 | ETA 12:26:55
Time 01:12:50 | Step 88514764 / 1000000001 | TPS 20520.9 | ETA 12:20:17
Time 01:13:00 | Step 88718813 / 1000000001 | TPS 20404.8 | ETA 12:24:20
Time 01:13:10 | Step 88921902 / 1000000001 | TPS 20308.9 | ETA 12:27:41
Time 01:13:20 | Step 89122235 / 1000000001 | TPS 20033.2 | ETA 12:37:48
Time 01:13:30 | Step 89322910 / 1000000001 | TPS 20067.4 | ETA 12:36:20
Time 01:13:40 | Step 89524462 / 1000000001 | TPS 20155.2 | ETA 12:32:53
Time 01:13:50 | Step 89726052 / 1000000001 | TPS 20159 | ETA 12:32:34
Time 01:14:00 | Step 89928738 / 1000000001 | TPS 20268.6 | ETA 12:28:20
Time 01:14:10 | Step 90130085 / 1000000001 | TPS 20134.6 | ETA 12:33:09
Time 01:14:20 | Step 90332651 / 1000000001 | TPS 20256.5 | ETA 12:28:27
Time 01:14:30 | Step 90536779 / 1000000001 | TPS 20412.8 | ETA 12:22:33
Time 01:14:40 | Step 90738425 / 1000000001 | TPS 20164.6 | ETA 12:31:32
Time 01:14:50 | Step 90941168 / 1000000001 | TPS 20274.3 | ETA 12:27:18
Time 01:15:00 | Step 91141636 / 1000000001 | TPS 20046.8 | ETA 12:35:36
Time 01:15:10 | Step 91344768 / 1000000001 | TPS 20313.2 | ETA 12:25:32
Time 01:15:20 | Step 91548694 / 1000000001 | TPS 20392.6 | ETA 12:22:28
Time 01:15:30 | Step 91752210 / 1000000001 | TPS 20351.6 | ETA 12:23:47
Time 01:15:40 | Step 91954075 / 1000000001 | TPS 20186.5 | ETA 12:29:42
Time 01:15:50 | Step 92155257 / 1000000001 | TPS 20118.1 | ETA 12:32:05
Time 01:16:00 | Step 92355882 / 1000000001 | TPS 20062.4 | ETA 12:34:00
Time 01:16:10 | Step 92556393 / 1000000001 | TPS 20051.1 | ETA 12:34:16
Time 01:16:20 | Step 92756780 / 1000000001 | TPS 20038.6 | ETA 12:34:34
Time 01:16:30 | Step 92958273 / 1000000001 | TPS 20149.1 | ETA 12:30:16
Time 01:16:40 | Step 93160199 / 1000000001 | TPS 20192.5 | ETA 12:28:29
Time 01:16:50 | Step 93362626 / 1000000001 | TPS 20242.7 | ETA 12:26:28
Time 01:17:00 | Step 93565468 / 1000000001 | TPS 20284.1 | ETA 12:24:46
Time 01:17:10 | Step 93767322 / 1000000001 | TPS 20185.4 | ETA 12:28:15
Time 01:17:20 | Step 93970417 / 1000000001 | TPS 20309.5 | ETA 12:23:31
Time 01:17:30 | Step 94171813 / 1000000001 | TPS 20139.6 | ETA 12:29:37
Time 01:17:40 | Step 94373264 / 1000000001 | TPS 20145.1 | ETA 12:29:15
Time 01:17:50 | Step 94576141 / 1000000001 | TPS 20287.6 | ETA 12:23:49
Time 01:18:00 | Step 94777627 / 1000000001 | TPS 20148.6 | ETA 12:28:47
Time 01:18:10 | Step 94978115 / 1000000001 | TPS 20048.7 | ETA 12:32:21
Time 01:18:20 | Step 95178476 / 1000000001 | TPS 20036.1 | ETA 12:32:39
Time 01:18:30 | Step 95381080 / 1000000001 | TPS 20260.3 | ETA 12:24:09
Time 01:18:40 | Step 95583581 / 1000000001 | TPS 20250.1 | ETA 12:24:22
Time 01:18:50 | Step 95784688 / 1000000001 | TPS 20110.6 | ETA 12:29:22
Time 01:19:00 | Step 95987874 / 1000000001 | TPS 20318.6 | ETA 12:21:31
Time 01:19:10 | Step 96189953 / 1000000001 | TPS 20207.8 | ETA 12:25:25
Time 01:19:20 | Step 96390913 / 1000000001 | TPS 20096 | ETA 12:29:24
Time 01:19:30 | Step 96592817 / 1000000001 | TPS 20190.4 | ETA 12:25:44
Time 01:19:40 | Step 96795013 / 1000000001 | TPS 20219.5 | ETA 12:24:29
Time 01:19:50 | Step 96996970 / 1000000001 | TPS 20195.6 | ETA 12:25:12
Time 01:20:00 | Step 97199539 / 1000000001 | TPS 20256.8 | ETA 12:22:47
Time 01:20:10 | Step 97402377 / 1000000001 | TPS 20283.8 | ETA 12:21:38
Time 01:20:20 | Step 97604539 / 1000000001 | TPS 20216.2 | ETA 12:23:57
Time 01:20:30 | Step 97807372 / 1000000001 | TPS 20283.1 | ETA 12:21:20
Time 01:20:40 | Step 98010901 / 1000000001 | TPS 20352.8 | ETA 12:18:37
Time 01:20:50 | Step 98212212 / 1000000001 | TPS 20131 | ETA 12:26:35
Time 01:21:00 | Step 98414462 / 1000000001 | TPS 20225 | ETA 12:22:57
Time 01:21:10 | Step 98616133 / 1000000001 | TPS 20167.1 | ETA 12:24:55
Time 01:21:20 | Step 98818036 / 1000000001 | TPS 20190.3 | ETA 12:23:54
Time 01:21:30 | Step 99019141 / 1000000001 | TPS 20110.4 | ETA 12:26:41
Time 01:21:40 | Step 99218136 / 1000000001 | TPS 19899.4 | ETA 12:34:26
Time 01:21:50 | Step 99418269 / 1000000001 | TPS 20013.2 | ETA 12:29:59
Time 01:22:00 | Step 99619622 / 1000000001 | TPS 20135.3 | ETA 12:25:16
Time 01:22:10 | Step 99820463 / 1000000001 | TPS 20084 | ETA 12:27:00
Time 01:22:20 | Step 100021679 / 1000000001 | TPS 20121.6 | ETA 12:25:27
Time 01:22:30 | Step 100223101 / 1000000001 | TPS 20141.8 | ETA 12:24:32
Time 01:22:40 | Step 100425212 / 1000000001 | TPS 20211 | ETA 12:21:49
Time 01:22:50 | Step 100625701 / 1000000001 | TPS 20048.8 | ETA 12:27:39
Time 01:23:00 | Step 100829606 / 1000000001 | TPS 20390.5 | ETA 12:14:57
Time 01:23:10 | Step 101033707 / 1000000001 | TPS 20410.1 | ETA 12:14:05
Time 01:23:20 | Step 101236326 / 1000000001 | TPS 20261.8 | ETA 12:19:17
Time 01:23:30 | Step 101439040 / 1000000001 | TPS 20271.3 | ETA 12:18:46
Time 01:23:40 | Step 101640301 / 1000000001 | TPS 20125.7 | ETA 12:23:57
Time 01:23:50 | Step 101843814 / 1000000001 | TPS 20351.2 | ETA 12:15:32
Time 01:24:00 | Step 102046154 / 1000000001 | TPS 20234 | ETA 12:19:38
Time 01:24:10 | Step 102250096 / 1000000001 | TPS 20394.2 | ETA 12:13:39
Time 01:24:20 | Step 102452870 / 1000000001 | TPS 20277.3 | ETA 12:17:43
Time 01:24:30 | Step 102656460 / 1000000001 | TPS 20359 | ETA 12:14:36
Time 01:24:40 | Step 102859233 / 1000000001 | TPS 20277.1 | ETA 12:17:23
Time 01:24:50 | Step 103061289 / 1000000001 | TPS 20205.6 | ETA 12:19:50
Time 01:25:00 | Step 103264602 / 1000000001 | TPS 20331.2 | ETA 12:15:06
Time 01:25:10 | Step 103469382 / 1000000001 | TPS 20477.9 | ETA 12:09:40
Time 01:25:20 | Step 103672827 / 1000000001 | TPS 20344.5 | ETA 12:14:17
Time 01:25:30 | Step 103875006 / 1000000001 | TPS 20217.9 | ETA 12:18:43
Time 01:25:40 | Step 104077448 / 1000000001 | TPS 20244.2 | ETA 12:17:35
Time 01:25:50 | Step 104280521 / 1000000001 | TPS 20307.3 | ETA 12:15:08
Time 01:26:00 | Step 104483577 / 1000000001 | TPS 20305.4 | ETA 12:15:02
Time 01:26:10 | Step 104686282 / 1000000001 | TPS 20270.3 | ETA 12:16:08
Time 01:26:20 | Step 104889540 / 1000000001 | TPS 20325.8 | ETA 12:13:58
Time 01:26:30 | Step 105091972 / 1000000001 | TPS 20243.1 | ETA 12:16:47
Time 01:26:40 | Step 105292733 / 1000000001 | TPS 20076 | ETA 12:22:45
Time 01:26:50 | Step 105493835 / 1000000001 | TPS 20110.2 | ETA 12:21:20
Time 01:27:00 | Step 105695855 / 1000000001 | TPS 20201.9 | ETA 12:17:48
Time 01:27:10 | Step 105898065 / 1000000001 | TPS 20221 | ETA 12:16:56
Time 01:27:20 | Step 106100487 / 1000000001 | TPS 20242.2 | ETA 12:16:00
Time 01:27:30 | Step 106299974 / 1000000001 | TPS 19948.6 | ETA 12:26:40
Time 01:27:40 | Step 106501291 / 1000000001 | TPS 20131.5 | ETA 12:19:43
Time 01:27:50 | Step 106701607 / 1000000001 | TPS 20031.6 | ETA 12:23:14
Time 01:28:00 | Step 106903009 / 1000000001 | TPS 20140.1 | ETA 12:19:04
Time 01:28:10 | Step 107104241 / 1000000001 | TPS 20123.1 | ETA 12:19:31
Time 01:28:20 | Step 107306548 / 1000000001 | TPS 20230.6 | ETA 12:15:25
Time 01:28:30 | Step 107505237 / 1000000001 | TPS 19868.9 | ETA 12:28:39
Time 01:28:40 | Step 107703223 / 1000000001 | TPS 19798.6 | ETA 12:31:08
Time 01:28:50 | Step 107903018 / 1000000001 | TPS 19979.5 | ETA 12:24:10
Time 01:29:00 | Step 108104088 / 1000000001 | TPS 20107 | ETA 12:19:17
Time 01:29:10 | Step 108308022 / 1000000001 | TPS 20393.4 | ETA 12:08:44
Time 01:29:20 | Step 108510421 / 1000000001 | TPS 20239.7 | ETA 12:14:06
Time 01:29:30 | Step 108714567 / 1000000001 | TPS 20414.6 | ETA 12:07:39
Time 01:29:40 | Step 108917994 / 1000000001 | TPS 20342.7 | ETA 12:10:03
Time 01:29:50 | Step 109121759 / 1000000001 | TPS 20376.5 | ETA 12:08:40
Time 01:30:00 | Step 109325045 / 1000000001 | TPS 20328.6 | ETA 12:10:13
Time 01:30:10 | Step 109527445 / 1000000001 | TPS 20240 | ETA 12:13:15
Time 01:30:20 | Step 109729926 / 1000000001 | TPS 20248 | ETA 12:12:48
Time 01:30:30 | Step 109929522 / 1000000001 | TPS 19959.4 | ETA 12:23:13
Time 01:30:40 | Step 110131416 / 1000000001 | TPS 20189.4 | ETA 12:14:36
Time 01:30:50 | Step 110334116 / 1000000001 | TPS 20270 | ETA 12:11:30
Time 01:31:00 | Step 110536613 / 1000000001 | TPS 20249.7 | ETA 12:12:04
Time 01:31:10 | Step 110740610 / 1000000001 | TPS 20399.6 | ETA 12:06:31
Time 01:31:20 | Step 110942413 / 1000000001 | TPS 20180.3 | ETA 12:14:15
Time 01:31:30 | Step 111143565 / 1000000001 | TPS 20115.2 | ETA 12:16:28
Time 01:31:40 | Step 111345494 / 1000000001 | TPS 20192.9 | ETA 12:13:28
Time 01:31:50 | Step 111545685 / 1000000001 | TPS 20019.1 | ETA 12:19:40
Time 01:32:00 | Step 111746594 / 1000000001 | TPS 20090.7 | ETA 12:16:52
Time 01:32:10 | Step 111948541 / 1000000001 | TPS 20194.6 | ETA 12:12:54
Time 01:32:20 | Step 112149455 / 1000000001 | TPS 20091.2 | ETA 12:16:31
Time 01:32:30 | Step 112351134 / 1000000001 | TPS 20167.9 | ETA 12:13:33
Time 01:32:40 | Step 112554548 / 1000000001 | TPS 20341.4 | ETA 12:07:07
Time 01:32:50 | Step 112756437 / 1000000001 | TPS 20188.9 | ETA 12:12:27
Time 01:33:00 | Step 112955900 / 1000000001 | TPS 19946.2 | ETA 12:21:11
Time 01:33:10 | Step 113156712 / 1000000001 | TPS 20081.2 | ETA 12:16:02
Time 01:33:20 | Step 113357690 / 1000000001 | TPS 20097.6 | ETA 12:15:16
Time 01:33:30 | Step 113556444 / 1000000001 | TPS 19875.3 | ETA 12:23:20
Time 01:33:40 | Step 113756221 / 1000000001 | TPS 19977.7 | ETA 12:19:21
Time 01:33:50 | Step 113957011 / 1000000001 | TPS 20079 | ETA 12:15:27
Time 01:34:00 | Step 114158878 / 1000000001 | TPS 20186.7 | ETA 12:11:22
Time 01:34:10 | Step 114362116 / 1000000001 | TPS 20323.7 | ETA 12:06:16
Time 01:34:20 | Step 114565984 / 1000000001 | TPS 20386.8 | ETA 12:03:51
Time 01:34:30 | Step 114766524 / 1000000001 | TPS 20054 | ETA 12:15:42
Time 01:34:40 | Step 114969001 / 1000000001 | TPS 20247.4 | ETA 12:08:30
Time 01:34:50 | Step 115170885 / 1000000001 | TPS 20188.4 | ETA 12:10:28
Time 01:35:00 | Step 115372350 / 1000000001 | TPS 20146.5 | ETA 12:11:49
Time 01:35:10 | Step 115572238 / 1000000001 | TPS 19988.8 | ETA 12:17:26
Time 01:35:20 | Step 115775113 / 1000000001 | TPS 20287.4 | ETA 12:06:24
Time 01:35:30 | Step 115978229 / 1000000001 | TPS 20311.5 | ETA 12:05:23
Time 01:35:40 | Step 116180181 / 1000000001 | TPS 20195.1 | ETA 12:09:23
Time 01:35:50 | Step 116379915 / 1000000001 | TPS 19973.4 | ETA 12:17:19
Time 01:36:00 | Step 116577419 / 1000000001 | TPS 19750.4 | ETA 12:25:29
Time 01:36:10 | Step 116774112 / 1000000001 | TPS 19669.2 | ETA 12:28:23
Time 01:36:20 | Step 116972549 / 1000000001 | TPS 19843.6 | ETA 12:21:39
Time 01:36:30 | Step 117172141 / 1000000001 | TPS 19959.2 | ETA 12:17:11
Time 01:36:40 | Step 117372746 / 1000000001 | TPS 20060.5 | ETA 12:13:18
Time 01:36:50 | Step 117574527 / 1000000001 | TPS 20178.1 | ETA 12:08:51
Time 01:37:00 | Step 117777827 / 1000000001 | TPS 20329.8 | ETA 12:03:15
Time 01:37:10 | Step 117980517 / 1000000001 | TPS 20268.9 | ETA 12:05:15
Time 01:37:20 | Step 118182410 / 1000000001 | TPS 20189.2 | ETA 12:07:57
Time 01:37:30 | Step 118386108 / 1000000001 | TPS 20369.8 | ETA 12:01:20
Time 01:37:40 | Step 118589016 / 1000000001 | TPS 20290.8 | ETA 12:03:58
Time 01:37:50 | Step 118792344 / 1000000001 | TPS 20332.8 | ETA 12:02:19
Time 01:38:00 | Step 118993043 / 1000000001 | TPS 20069.8 | ETA 12:11:37
Time 01:38:10 | Step 119195425 / 1000000001 | TPS 20238.1 | ETA 12:05:22
Time 01:38:20 | Step 119398001 / 1000000001 | TPS 20257.6 | ETA 12:04:30
Time 01:38:30 | Step 119598249 / 1000000001 | TPS 20024.8 | ETA 12:12:45
Time 01:38:40 | Step 119799561 / 1000000001 | TPS 20131.1 | ETA 12:08:43
Time 01:38:50 | Step 120000601 / 1000000001 | TPS 20103.7 | ETA 12:09:33
Time 01:39:00 | Step 120201416 / 1000000001 | TPS 20081.5 | ETA 12:10:11
Time 01:39:10 | Step 120403271 / 1000000001 | TPS 20185.4 | ETA 12:06:15
Time 01:39:20 | Step 120601578 / 1000000001 | TPS 19830.7 | ETA 12:19:05
Time 01:39:30 | Step 120802981 / 1000000001 | TPS 20140.3 | ETA 12:07:33
Time 01:39:40 | Step 121001774 / 1000000001 | TPS 19879.2 | ETA 12:16:56
Time 01:39:50 | Step 121203129 / 1000000001 | TPS 20135.4 | ETA 12:07:24
Time 01:40:00 | Step 121404524 / 1000000001 | TPS 20139.5 | ETA 12:07:05
Time 01:40:10 | Step 121605528 / 1000000001 | TPS 20100.3 | ETA 12:08:20
Time 01:40:20 | Step 121806003 / 1000000001 | TPS 20047.5 | ETA 12:10:05
Time 01:40:30 | Step 122008782 / 1000000001 | TPS 20277.9 | ETA 12:01:38
Time 01:40:40 | Step 122210851 / 1000000001 | TPS 20206.8 | ETA 12:04:00
Time 01:40:50 | Step 122411697 / 1000000001 | TPS 20084.6 | ETA 12:08:14
Time 01:41:00 | Step 122614099 / 1000000001 | TPS 20240.1 | ETA 12:02:28
Time 01:41:10 | Step 122815186 / 1000000001 | TPS 20108.7 | ETA 12:07:02
Time 01:41:20 | Step 123017681 / 1000000001 | TPS 20249.4 | ETA 12:01:48
Time 01:41:30 | Step 123221011 / 1000000001 | TPS 20332.9 | ETA 11:58:41
Time 01:41:40 | Step 123423978 / 1000000001 | TPS 20296.7 | ETA 11:59:48
Time 01:41:50 | Step 123625618 / 1000000001 | TPS 20164 | ETA 12:04:22
Time 01:42:00 | Step 123825559 / 1000000001 | TPS 19994 | ETA 12:10:21
Time 01:42:10 | Step 124024171 / 1000000001 | TPS 19861.2 | ETA 12:15:04
Time 01:42:20 | Step 124217580 / 1000000001 | TPS 19340.8 | ETA 12:34:41
Time 01:42:30 | Step 124415406 / 1000000001 | TPS 19782.5 | ETA 12:17:40
Time 01:42:40 | Step 124613518 / 1000000001 | TPS 19811.2 | ETA 12:16:26
Time 01:42:50 | Step 124813990 / 1000000001 | TPS 20047.1 | ETA 12:07:36
Time 01:43:00 | Step 125013009 / 1000000001 | TPS 19901.8 | ETA 12:12:45
Time 01:43:10 | Step 125214262 / 1000000001 | TPS 20125.1 | ETA 12:04:27
Time 01:43:20 | Step 125416152 / 1000000001 | TPS 20189 | ETA 12:01:59
Time 01:43:30 | Step 125618982 / 1000000001 | TPS 20282.9 | ETA 11:58:29
Time 01:43:40 | Step 125820699 / 1000000001 | TPS 20171.6 | ETA 12:02:17
Time 01:43:50 | Step 126022686 / 1000000001 | TPS 20198.7 | ETA 12:01:09
Time 01:44:00 | Step 126223357 / 1000000001 | TPS 20067 | ETA 12:05:42
Time 01:44:10 | Step 126424388 / 1000000001 | TPS 20103.1 | ETA 12:04:14
Time 01:44:20 | Step 126621767 / 1000000001 | TPS 19737.8 | ETA 12:17:28
Time 01:44:30 | Step 126820076 / 1000000001 | TPS 19830.9 | ETA 12:13:51
Time 01:44:40 | Step 127018057 / 1000000001 | TPS 19798.1 | ETA 12:14:54
Time 01:44:50 | Step 127217008 / 1000000001 | TPS 19895 | ETA 12:11:09
Time 01:45:00 | Step 127415562 / 1000000001 | TPS 19855.4 | ETA 12:12:26
Time 01:45:10 | Step 127616381 / 1000000001 | TPS 20081.8 | ETA 12:04:01
Time 01:45:20 | Step 127817131 / 1000000001 | TPS 20074.9 | ETA 12:04:06
Time 01:45:30 | Step 128018100 / 1000000001 | TPS 20096.8 | ETA 12:03:09
Time 01:45:40 | Step 128214808 / 1000000001 | TPS 19670.8 | ETA 12:18:38
Time 01:45:50 | Step 128411754 / 1000000001 | TPS 19694.6 | ETA 12:17:35
Time 01:46:00 | Step 128611050 / 1000000001 | TPS 19929.4 | ETA 12:08:43
Time 01:46:10 | Step 128812034 / 1000000001 | TPS 20098.4 | ETA 12:02:26
Time 01:46:20 | Step 129013807 / 1000000001 | TPS 20177.2 | ETA 11:59:26
Time 01:46:30 | Step 129214801 / 1000000001 | TPS 20099 | ETA 12:02:04
Time 01:46:40 | Step 129416439 / 1000000001 | TPS 20163.7 | ETA 11:59:35
Time 01:46:50 | Step 129620380 / 1000000001 | TPS 20394.1 | ETA 11:51:18
Time 01:47:00 | Step 129823299 / 1000000001 | TPS 20291.8 | ETA 11:54:43
Time 01:47:10 | Step 130024711 / 1000000001 | TPS 20141.1 | ETA 11:59:53
Time 01:47:20 | Step 130226657 / 1000000001 | TPS 20194.5 | ETA 11:57:49
Time 01:47:30 | Step 130428121 / 1000000001 | TPS 20146.3 | ETA 11:59:22
Time 01:47:40 | Step 130629764 / 1000000001 | TPS 20164.2 | ETA 11:58:34
Time 01:47:50 | Step 130832255 / 1000000001 | TPS 20249.1 | ETA 11:55:23
Time 01:48:00 | Step 131034949 / 1000000001 | TPS 20269.2 | ETA 11:54:31
Time 01:48:10 | Step 131237302 / 1000000001 | TPS 20235.3 | ETA 11:55:33
Time 01:48:20 | Step 131441317 / 1000000001 | TPS 20401.3 | ETA 11:49:33
Time 01:48:30 | Step 131645799 / 1000000001 | TPS 20448.2 | ETA 11:47:46
Time 01:48:40 | Step 131847904 / 1000000001 | TPS 20210.5 | ETA 11:55:55
Time 01:48:50 | Step 132050165 / 1000000001 | TPS 20226 | ETA 11:55:12
Time 01:49:00 | Step 132252381 / 1000000001 | TPS 20221.6 | ETA 11:55:12
Time 01:49:10 | Step 132452596 / 1000000001 | TPS 20021.4 | ETA 12:02:10
Time 01:49:20 | Step 132655546 / 1000000001 | TPS 20294.9 | ETA 11:52:17
Time 01:49:30 | Step 132858049 / 1000000001 | TPS 20250.2 | ETA 11:53:41
Time 01:49:40 | Step 133058402 / 1000000001 | TPS 20035.3 | ETA 12:01:10
Time 01:49:50 | Step 133259959 / 1000000001 | TPS 20155.6 | ETA 11:56:42
Time 01:50:00 | Step 133458954 / 1000000001 | TPS 19899.5 | ETA 12:05:45
Time 01:50:10 | Step 133658854 / 1000000001 | TPS 19989.8 | ETA 12:02:19
Time 01:50:20 | Step 133859763 / 1000000001 | TPS 20090.9 | ETA 11:58:31
Time 01:50:30 | Step 134060101 / 1000000001 | TPS 20033.4 | ETA 12:00:24
Time 01:50:40 | Step 134258625 / 1000000001 | TPS 19852.3 | ETA 12:06:49
Time 01:50:50 | Step 134456885 / 1000000001 | TPS 19825.9 | ETA 12:07:37
Time 01:51:00 | Step 134655477 / 1000000001 | TPS 19859 | ETA 12:06:14
Time 01:51:10 | Step 134857751 / 1000000001 | TPS 20227.4 | ETA 11:52:50
Time 01:51:20 | Step 135059997 / 1000000001 | TPS 20224.6 | ETA 11:52:46
Time 01:51:30 | Step 135261437 / 1000000001 | TPS 20143.9 | ETA 11:55:27
Time 01:51:40 | Step 135464597 / 1000000001 | TPS 20316 | ETA 11:49:14
Time 01:51:50 | Step 135664406 / 1000000001 | TPS 19980.9 | ETA 12:00:58
Time 01:52:00 | Step 135861782 / 1000000001 | TPS 19737.6 | ETA 12:09:41
Time 01:52:10 | Step 136062965 / 1000000001 | TPS 20118.2 | ETA 11:55:43
Time 01:52:20 | Step 136264782 / 1000000001 | TPS 20181.6 | ETA 11:53:18
Time 01:52:30 | Step 136466244 / 1000000001 | TPS 20146.1 | ETA 11:54:23
Time 01:52:40 | Step 136667537 / 1000000001 | TPS 20129.1 | ETA 11:54:49
Time 01:52:50 | Step 136870042 / 1000000001 | TPS 20250.5 | ETA 11:50:22
Time 01:53:00 | Step 137069348 / 1000000001 | TPS 19930.6 | ETA 12:01:36
Time 01:53:10 | Step 137272515 / 1000000001 | TPS 20316.6 | ETA 11:47:44
Time 01:53:20 | Step 137476257 / 1000000001 | TPS 20374.1 | ETA 11:45:34
Time 01:53:30 | Step 137678217 / 1000000001 | TPS 20195.9 | ETA 11:51:37
Time 01:53:40 | Step 137881318 / 1000000001 | TPS 20310.1 | ETA 11:47:27
Time 01:53:50 | Step 138081577 / 1000000001 | TPS 20025.9 | ETA 11:57:20
Time 01:54:00 | Step 138284791 / 1000000001 | TPS 20321.4 | ETA 11:46:44
Time 01:54:10 | Step 138487570 / 1000000001 | TPS 20277.9 | ETA 11:48:05
Time 01:54:20 | Step 138689839 / 1000000001 | TPS 20226.9 | ETA 11:49:42
Time 01:54:30 | Step 138891831 / 1000000001 | TPS 20199.2 | ETA 11:50:30
Time 01:54:40 | Step 139093579 / 1000000001 | TPS 20174.8 | ETA 11:51:12
Time 01:54:50 | Step 139295762 / 1000000001 | TPS 20218.3 | ETA 11:49:30
Time 01:55:00 | Step 139496662 / 1000000001 | TPS 20090 | ETA 11:53:52
Time 01:55:10 | Step 139698535 / 1000000001 | TPS 20187.3 | ETA 11:50:16
Time 01:55:20 | Step 139900606 / 1000000001 | TPS 20207.1 | ETA 11:49:24
Time 01:55:30 | Step 140101093 / 1000000001 | TPS 20048.7 | ETA 11:54:50
Time 01:55:40 | Step 140300657 / 1000000001 | TPS 19956.3 | ETA 11:57:59
Time 01:55:50 | Step 140501117 / 1000000001 | TPS 20046 | ETA 11:54:36
Time 01:56:00 | Step 140702580 / 1000000001 | TPS 20146.3 | ETA 11:50:52
Time 01:56:10 | Step 140903404 / 1000000001 | TPS 20082.4 | ETA 11:52:58
Time 01:56:20 | Step 141103300 / 1000000001 | TPS 19989.6 | ETA 11:56:07
Time 01:56:30 | Step 141303593 / 1000000001 | TPS 20029.3 | ETA 11:54:32
Time 01:56:40 | Step 141505732 / 1000000001 | TPS 20213.7 | ETA 11:47:50
Time 01:56:50 | Step 141707042 / 1000000001 | TPS 20130.8 | ETA 11:50:35
Time 01:57:00 | Step 141908257 / 1000000001 | TPS 20121.5 | ETA 11:50:45
Time 01:57:10 | Step 142109253 / 1000000001 | TPS 20099.4 | ETA 11:51:22
Time 01:57:20 | Step 142309008 / 1000000001 | TPS 19975.5 | ETA 11:55:37
Time 01:57:30 | Step 142520003 / 1000000001 | TPS 21099.4 | ETA 11:17:19
Time 01:57:40 | Step 142733390 / 1000000001 | TPS 21338.7 | ETA 11:09:34
Time 01:57:50 | Step 142945702 / 1000000001 | TPS 21231.1 | ETA 11:12:47
Time 01:58:00 | Step 143146120 / 1000000001 | TPS 20041.8 | ETA 11:52:33
Time 01:58:10 | Step 143354880 / 1000000001 | TPS 20876 | ETA 11:23:54
Time 01:58:20 | Step 143565761 / 1000000001 | TPS 21088 | ETA 11:16:52
Time 01:58:30 | Step 143776645 / 1000000001 | TPS 21088.4 | ETA 11:16:41
Time 01:58:40 | Step 143990197 / 1000000001 | TPS 21355.1 | ETA 11:08:04
Time 01:58:50 | Step 144203608 / 1000000001 | TPS 21341 | ETA 11:08:21
Time 01:59:00 | Step 144418766 / 1000000001 | TPS 21515.6 | ETA 11:02:45
Time 01:59:10 | Step 144632401 / 1000000001 | TPS 21363 | ETA 11:07:19
Time 01:59:20 | Step 144844562 / 1000000001 | TPS 21216.1 | ETA 11:11:47
Time 01:59:30 | Step 145058136 / 1000000001 | TPS 21357.3 | ETA 11:07:10
Time 01:59:40 | Step 145271003 / 1000000001 | TPS 21286.5 | ETA 11:09:13
Time 01:59:50 | Step 145484561 / 1000000001 | TPS 21355.8 | ETA 11:06:53
Time 02:00:00 | Step 145698843 / 1000000001 | TPS 21428.2 | ETA 11:04:28
Time 02:00:10 | Step 145911070 / 1000000001 | TPS 21222.7 | ETA 11:10:44
Time 02:00:20 | Step 146121703 / 1000000001 | TPS 21063.3 | ETA 11:15:38
Time 02:00:30 | Step 146335857 / 1000000001 | TPS 21415.3 | ETA 11:04:22
Time 02:00:40 | Step 146549485 / 1000000001 | TPS 21362.7 | ETA 11:05:50
Time 02:00:50 | Step 146764330 / 1000000001 | TPS 21484.4 | ETA 11:01:54
Time 02:01:00 | Step 146977954 / 1000000001 | TPS 21362.4 | ETA 11:05:31
Time 02:01:10 | Step 147190092 / 1000000001 | TPS 21213.7 | ETA 11:10:00
Time 02:01:20 | Step 147402439 / 1000000001 | TPS 21234.7 | ETA 11:09:11
Time 02:01:30 | Step 147617907 / 1000000001 | TPS 21546.8 | ETA 10:59:19
Time 02:01:40 | Step 147832246 / 1000000001 | TPS 21433.8 | ETA 11:02:38
Time 02:01:50 | Step 148044469 / 1000000001 | TPS 21222.1 | ETA 11:09:04
Time 02:02:00 | Step 148259609 / 1000000001 | TPS 21514 | ETA 10:59:50
Time 02:02:10 | Step 148473966 / 1000000001 | TPS 21435.6 | ETA 11:02:04
Time 02:02:20 | Step 148682299 / 1000000001 | TPS 20833.2 | ETA 11:21:03
Time 02:02:30 | Step 148896878 / 1000000001 | TPS 21457.9 | ETA 11:01:03
Time 02:02:40 | Step 149112181 / 1000000001 | TPS 21530.3 | ETA 10:58:40
Time 02:02:50 | Step 149325340 / 1000000001 | TPS 21315.8 | ETA 11:05:08
Time 02:03:00 | Step 149536142 / 1000000001 | TPS 21080 | ETA 11:12:24
Time 02:03:10 | Step 149750511 / 1000000001 | TPS 21436.8 | ETA 11:01:03
Time 02:03:20 | Step 149964962 / 1000000001 | TPS 21445.1 | ETA 11:00:37
Time 02:03:30 | Step 150177325 / 1000000001 | TPS 21236.2 | ETA 11:06:57
Time 02:03:40 | Step 150385629 / 1000000001 | TPS 20830.4 | ETA 11:19:47
Time 02:03:50 | Step 150585305 / 1000000001 | TPS 19967.5 | ETA 11:48:59
Time 02:04:00 | Step 150795919 / 1000000001 | TPS 21061.3 | ETA 11:12:00
Time 02:04:10 | Step 151005656 / 1000000001 | TPS 20973.7 | ETA 11:14:39
Time 02:04:20 | Step 151218942 / 1000000001 | TPS 21328.6 | ETA 11:03:15
Time 02:04:30 | Step 151432792 / 1000000001 | TPS 21384.8 | ETA 11:01:20
Time 02:04:40 | Step 151647427 / 1000000001 | TPS 21463.4 | ETA 10:58:45
Time 02:04:50 | Step 151861913 / 1000000001 | TPS 21448.5 | ETA 10:59:03
Time 02:05:00 | Step 152074942 / 1000000001 | TPS 21302.9 | ETA 11:03:23
Time 02:05:10 | Step 152287875 / 1000000001 | TPS 21293.2 | ETA 11:03:31
Time 02:05:20 | Step 152502641 / 1000000001 | TPS 21476.5 | ETA 10:57:41
Time 02:05:30 | Step 152715705 / 1000000001 | TPS 21306.3 | ETA 11:02:46
Time 02:05:40 | Step 152926829 / 1000000001 | TPS 21112.4 | ETA 11:08:42
Time 02:05:50 | Step 153141881 / 1000000001 | TPS 21505.2 | ETA 10:56:19
Time 02:06:00 | Step 153354048 / 1000000001 | TPS 21216.7 | ETA 11:05:04
Time 02:06:10 | Step 153567702 / 1000000001 | TPS 21365.3 | ETA 11:00:17
Time 02:06:20 | Step 153781650 / 1000000001 | TPS 21394.8 | ETA 10:59:12
Time 02:06:30 | Step 153995141 / 1000000001 | TPS 21349.1 | ETA 11:00:27
Time 02:06:40 | Step 154209182 / 1000000001 | TPS 21404.1 | ETA 10:58:35
Time 02:06:50 | Step 154425121 / 1000000001 | TPS 21593.9 | ETA 10:52:38
Time 02:07:00 | Step 154640382 / 1000000001 | TPS 21526 | ETA 10:54:31
Time 02:07:10 | Step 154850334 / 1000000001 | TPS 20995.2 | ETA 11:10:54
Time 02:07:20 | Step 155064998 / 1000000001 | TPS 21466.4 | ETA 10:56:00
Time 02:07:30 | Step 155278789 / 1000000001 | TPS 21378.9 | ETA 10:58:31
Time 02:07:40 | Step 155492163 / 1000000001 | TPS 21337.3 | ETA 10:59:38
Time 02:07:50 | Step 155704515 / 1000000001 | TPS 21235.2 | ETA 11:02:39
Time 02:08:00 | Step 155912260 / 1000000001 | TPS 20774.4 | ETA 11:17:11
Time 02:08:10 | Step 156128371 / 1000000001 | TPS 21611 | ETA 10:50:48
Time 02:08:20 | Step 156343151 / 1000000001 | TPS 21477.9 | ETA 10:54:40
Time 02:08:30 | Step 156557955 / 1000000001 | TPS 21480.3 | ETA 10:54:25
Time 02:08:40 | Step 156772576 / 1000000001 | TPS 21462 | ETA 10:54:49
Time 02:08:50 | Step 156986587 / 1000000001 | TPS 21400.9 | ETA 10:56:31
Time 02:09:00 | Step 157201094 / 1000000001 | TPS 21450.7 | ETA 10:54:50
Time 02:09:10 | Step 157415554 / 1000000001 | TPS 21446 | ETA 10:54:48
Time 02:09:20 | Step 157630624 / 1000000001 | TPS 21506.9 | ETA 10:52:47
Time 02:09:30 | Step 157842498 / 1000000001 | TPS 21187.4 | ETA 11:02:28
Time 02:09:40 | Step 158053216 / 1000000001 | TPS 21071.7 | ETA 11:05:56
Time 02:09:50 | Step 158266160 / 1000000001 | TPS 21294.4 | ETA 10:58:48
Time 02:10:00 | Step 158480566 / 1000000001 | TPS 21440.6 | ETA 10:54:08
Time 02:10:10 | Step 158695880 / 1000000001 | TPS 21531.4 | ETA 10:51:13
Time 02:10:20 | Step 158911681 / 1000000001 | TPS 21580.1 | ETA 10:49:35
Time 02:10:30 | Step 159120841 / 1000000001 | TPS 20915.9 | ETA 11:10:02
Time 02:10:40 | Step 159325946 / 1000000001 | TPS 20510.5 | ETA 11:23:07
Time 02:10:50 | Step 159530750 / 1000000001 | TPS 20480.3 | ETA 11:23:57
Time 02:11:00 | Step 159735571 / 1000000001 | TPS 20482.1 | ETA 11:23:44
Time 02:11:10 | Step 159941664 / 1000000001 | TPS 20609.2 | ETA 11:19:21
Time 02:11:20 | Step 160146716 / 1000000001 | TPS 20505.2 | ETA 11:22:38
Time 02:11:30 | Step 160352078 / 1000000001 | TPS 20536.2 | ETA 11:21:26
Time 02:11:40 | Step 160558002 / 1000000001 | TPS 20592.4 | ETA 11:19:24
Time 02:11:50 | Step 160763003 / 1000000001 | TPS 20500.1 | ETA 11:22:18
Time 02:12:00 | Step 160968094 / 1000000001 | TPS 20509 | ETA 11:21:50
Time 02:12:10 | Step 161172344 / 1000000001 | TPS 20425 | ETA 11:24:28
Time 02:12:20 | Step 161376812 / 1000000001 | TPS 20446.7 | ETA 11:23:35
Time 02:12:30 | Step 161582623 / 1000000001 | TPS 20581.1 | ETA 11:18:57
Time 02:12:40 | Step 161788539 / 1000000001 | TPS 20591.6 | ETA 11:18:26
Time 02:12:50 | Step 161991885 / 1000000001 | TPS 20334.6 | ETA 11:26:50
Time 02:13:00 | Step 162194521 / 1000000001 | TPS 20263.4 | ETA 11:29:05
Time 02:13:10 | Step 162398878 / 1000000001 | TPS 20435.7 | ETA 11:23:07
Time 02:13:20 | Step 162603604 / 1000000001 | TPS 20472.6 | ETA 11:21:43
Time 02:13:30 | Step 162806893 / 1000000001 | TPS 20328.8 | ETA 11:26:22
Time 02:13:40 | Step 163012009 / 1000000001 | TPS 20511.6 | ETA 11:20:05
Time 02:13:50 | Step 163217208 / 1000000001 | TPS 20519.9 | ETA 11:19:39
Time 02:14:00 | Step 163421724 / 1000000001 | TPS 20451.6 | ETA 11:21:45
Time 02:14:10 | Step 163625638 / 1000000001 | TPS 20391.4 | ETA 11:23:36
Time 02:14:20 | Step 163830352 / 1000000001 | TPS 20471.4 | ETA 11:20:45
Time 02:14:30 | Step 164035102 / 1000000001 | TPS 20475 | ETA 11:20:28
Time 02:14:40 | Step 164240190 / 1000000001 | TPS 20508.8 | ETA 11:19:11
Time 02:14:50 | Step 164443319 / 1000000001 | TPS 20312.9 | ETA 11:25:34
Time 02:15:00 | Step 164642613 / 1000000001 | TPS 19929.4 | ETA 11:38:35
Time 02:15:10 | Step 164844748 / 1000000001 | TPS 20213.5 | ETA 11:28:36
Time 02:15:20 | Step 165049771 / 1000000001 | TPS 20502.2 | ETA 11:18:44
Time 02:15:30 | Step 165255362 / 1000000001 | TPS 20559.1 | ETA 11:16:42
Time 02:15:40 | Step 165460962 / 1000000001 | TPS 20559.9 | ETA 11:16:30
Time 02:15:50 | Step 165666255 / 1000000001 | TPS 20529.2 | ETA 11:17:21
Time 02:16:00 | Step 165871956 / 1000000001 | TPS 20570 | ETA 11:15:50
Time 02:16:10 | Step 166077687 / 1000000001 | TPS 20573.1 | ETA 11:15:34
Time 02:16:20 | Step 166283318 / 1000000001 | TPS 20563.1 | ETA 11:15:44
Time 02:16:30 | Step 166488432 / 1000000001 | TPS 20511.4 | ETA 11:17:16
Time 02:16:40 | Step 166692644 / 1000000001 | TPS 20421.1 | ETA 11:20:06
Time 02:16:50 | Step 166896809 / 1000000001 | TPS 20416.3 | ETA 11:20:05
Time 02:17:00 | Step 167101725 / 1000000001 | TPS 20491.6 | ETA 11:17:25
Time 02:17:10 | Step 167307010 / 1000000001 | TPS 20528.5 | ETA 11:16:02
Time 02:17:20 | Step 167511448 / 1000000001 | TPS 20443.8 | ETA 11:18:40
Time 02:17:30 | Step 167715657 / 1000000001 | TPS 20420.9 | ETA 11:19:16
Time 02:17:40 | Step 167920568 / 1000000001 | TPS 20491.1 | ETA 11:16:46
Time 02:17:50 | Step 168124908 / 1000000001 | TPS 20433.9 | ETA 11:18:30
Time 02:18:00 | Step 168329199 / 1000000001 | TPS 20429.1 | ETA 11:18:30
Time 02:18:10 | Step 168533850 / 1000000001 | TPS 20465.1 | ETA 11:17:08
Time 02:18:20 | Step 168737957 / 1000000001 | TPS 20410.6 | ETA 11:18:46
Time 02:18:30 | Step 168942211 / 1000000001 | TPS 20425.4 | ETA 11:18:07
Time 02:18:40 | Step 169147335 / 1000000001 | TPS 20512.3 | ETA 11:15:05
Time 02:18:50 | Step 169350902 / 1000000001 | TPS 20356.7 | ETA 11:20:04
Time 02:19:00 | Step 169556087 / 1000000001 | TPS 20518.4 | ETA 11:14:33
Time 02:19:10 | Step 169760863 / 1000000001 | TPS 20477.5 | ETA 11:15:43
Time 02:19:20 | Step 169965889 / 1000000001 | TPS 20502.6 | ETA 11:14:44
Time 02:19:30 | Step 170169970 / 1000000001 | TPS 20408.1 | ETA 11:17:41
Time 02:19:40 | Step 170374918 / 1000000001 | TPS 20494.8 | ETA 11:14:39
Time 02:19:50 | Step 170580111 / 1000000001 | TPS 20519.2 | ETA 11:13:41
Time 02:20:00 | Step 170784147 / 1000000001 | TPS 20403.6 | ETA 11:17:20
Time 02:20:10 | Step 170988273 / 1000000001 | TPS 20412.6 | ETA 11:16:52
Time 02:20:20 | Step 171192792 / 1000000001 | TPS 20451.9 | ETA 11:15:24
Time 02:20:30 | Step 171397396 / 1000000001 | TPS 20460.3 | ETA 11:14:57
Time 02:20:40 | Step 171601519 / 1000000001 | TPS 20412.3 | ETA 11:16:23
Time 02:20:50 | Step 171807183 / 1000000001 | TPS 20566.4 | ETA 11:11:09
Time 02:21:00 | Step 172012445 / 1000000001 | TPS 20526.2 | ETA 11:12:18
Time 02:21:10 | Step 172216879 / 1000000001 | TPS 20443.4 | ETA 11:14:51
Time 02:21:20 | Step 172421028 / 1000000001 | TPS 20414.9 | ETA 11:15:38
Time 02:21:30 | Step 172624826 / 1000000001 | TPS 20379.7 | ETA 11:16:37
Time 02:21:40 | Step 172827137 / 1000000001 | TPS 20231 | ETA 11:21:26
Time 02:21:50 | Step 173030700 / 1000000001 | TPS 20356.3 | ETA 11:17:04
Time 02:22:00 | Step 173235867 / 1000000001 | TPS 20516.7 | ETA 11:11:37
Time 02:22:10 | Step 173441583 / 1000000001 | TPS 20571.5 | ETA 11:09:39
Time 02:22:20 | Step 173645650 / 1000000001 | TPS 20406.7 | ETA 11:14:54
Time 02:22:30 | Step 173851302 / 1000000001 | TPS 20565.1 | ETA 11:09:32
Time 02:22:40 | Step 174054370 / 1000000001 | TPS 20306.7 | ETA 11:17:53
Time 02:22:50 | Step 174258168 / 1000000001 | TPS 20379.8 | ETA 11:15:17
Time 02:23:00 | Step 174461742 / 1000000001 | TPS 20357.4 | ETA 11:15:52
Time 02:23:10 | Step 174664574 / 1000000001 | TPS 20283.2 | ETA 11:18:10
Time 02:23:20 | Step 174868941 / 1000000001 | TPS 20436.7 | ETA 11:12:55
Time 02:23:30 | Step 175073137 / 1000000001 | TPS 20419.5 | ETA 11:13:18
Time 02:23:40 | Step 175278564 / 1000000001 | TPS 20542.7 | ETA 11:09:06
Time 02:23:50 | Step 175481367 / 1000000001 | TPS 20280.3 | ETA 11:17:36
Time 02:24:00 | Step 175683392 / 1000000001 | TPS 20202.5 | ETA 11:20:02
Time 02:24:10 | Step 175887090 / 1000000001 | TPS 20369.6 | ETA 11:14:18
Time 02:24:20 | Step 176090445 / 1000000001 | TPS 20335.4 | ETA 11:15:15
Time 02:24:30 | Step 176294572 / 1000000001 | TPS 20412.6 | ETA 11:12:32
Time 02:24:40 | Step 176499826 / 1000000001 | TPS 20525.4 | ETA 11:08:41
Time 02:24:50 | Step 176705210 / 1000000001 | TPS 20538.4 | ETA 11:08:05
Time 02:25:00 | Step 176911486 / 1000000001 | TPS 20627.6 | ETA 11:05:02
Time 02:25:10 | Step 177117625 / 1000000001 | TPS 20613.9 | ETA 11:05:18
Time 02:25:20 | Step 177323089 / 1000000001 | TPS 20546.3 | ETA 11:07:20
Time 02:25:30 | Step 177529161 / 1000000001 | TPS 20607.1 | ETA 11:05:11
Time 02:25:40 | Step 177735898 / 1000000001 | TPS 20673.7 | ETA 11:02:53
Time 02:25:50 | Step 177941177 / 1000000001 | TPS 20527.8 | ETA 11:07:26
Time 02:26:00 | Step 178146314 / 1000000001 | TPS 20513.7 | ETA 11:07:43
Time 02:26:10 | Step 178351313 / 1000000001 | TPS 20499.8 | ETA 11:08:00
Time 02:26:20 | Step 178555995 / 1000000001 | TPS 20468.2 | ETA 11:08:52
Time 02:26:30 | Step 178761167 / 1000000001 | TPS 20517.1 | ETA 11:07:06
Time 02:26:40 | Step 178966822 / 1000000001 | TPS 20565.5 | ETA 11:05:22
Time 02:26:50 | Step 179171515 / 1000000001 | TPS 20469.2 | ETA 11:08:20
Time 02:27:00 | Step 179375310 / 1000000001 | TPS 20379.4 | ETA 11:11:07
Time 02:27:10 | Step 179580689 / 1000000001 | TPS 20537.9 | ETA 11:05:46
Time 02:27:20 | Step 179785313 / 1000000001 | TPS 20462.3 | ETA 11:08:04
Time 02:27:30 | Step 179990817 / 1000000001 | TPS 20550.4 | ETA 11:05:02
Time 02:27:40 | Step 180194982 / 1000000001 | TPS 20416.5 | ETA 11:09:14
Time 02:27:50 | Step 180399633 / 1000000001 | TPS 20464.9 | ETA 11:07:29
Time 02:28:00 | Step 180605152 / 1000000001 | TPS 20551.9 | ETA 11:04:29
Time 02:28:10 | Step 180809810 / 1000000001 | TPS 20465.8 | ETA 11:07:07
Time 02:28:20 | Step 181014531 / 1000000001 | TPS 20472.1 | ETA 11:06:45
Time 02:28:30 | Step 181219315 / 1000000001 | TPS 20478.2 | ETA 11:06:22
Time 02:28:40 | Step 181424255 / 1000000001 | TPS 20494 | ETA 11:05:42
Time 02:28:50 | Step 181627815 / 1000000001 | TPS 20355.9 | ETA 11:10:03
Time 02:29:00 | Step 181831434 / 1000000001 | TPS 20361.8 | ETA 11:09:41
Time 02:29:10 | Step 182035423 / 1000000001 | TPS 20398.9 | ETA 11:08:18
Time 02:29:20 | Step 182238593 / 1000000001 | TPS 20317 | ETA 11:10:50
Time 02:29:30 | Step 182440392 / 1000000001 | TPS 20179.9 | ETA 11:15:13
Time 02:29:40 | Step 182643656 / 1000000001 | TPS 20326.3 | ETA 11:10:11
Time 02:29:50 | Step 182847036 / 1000000001 | TPS 20338 | ETA 11:09:38
Time 02:30:00 | Step 183049400 / 1000000001 | TPS 20236.2 | ETA 11:12:50
Time 02:30:10 | Step 183254709 / 1000000001 | TPS 20530.7 | ETA 11:03:01
Time 02:30:20 | Step 183459099 / 1000000001 | TPS 20439 | ETA 11:05:50
Time 02:30:30 | Step 183665135 / 1000000001 | TPS 20603.6 | ETA 11:00:21
Time 02:30:40 | Step 183870569 / 1000000001 | TPS 20543.4 | ETA 11:02:07
Time 02:30:50 | Step 184075389 / 1000000001 | TPS 20481.9 | ETA 11:03:56
Time 02:31:00 | Step 184278075 / 1000000001 | TPS 20268.6 | ETA 11:10:45
Time 02:31:10 | Step 184484851 / 1000000001 | TPS 20677.5 | ETA 10:57:19
Time 02:31:20 | Step 184691031 / 1000000001 | TPS 20617.9 | ETA 10:59:03
Time 02:31:30 | Step 184896663 / 1000000001 | TPS 20563.2 | ETA 11:00:38
Time 02:31:40 | Step 185102278 / 1000000001 | TPS 20561.5 | ETA 11:00:32
Time 02:31:50 | Step 185307673 / 1000000001 | TPS 20539.4 | ETA 11:01:04
Time 02:32:00 | Step 185513016 / 1000000001 | TPS 20534.2 | ETA 11:01:04
Time 02:32:10 | Step 185718108 / 1000000001 | TPS 20509.2 | ETA 11:01:43
Time 02:32:20 | Step 185923342 / 1000000001 | TPS 20523.2 | ETA 11:01:06
Time 02:32:30 | Step 186127715 / 1000000001 | TPS 20437.2 | ETA 11:03:43
Time 02:32:40 | Step 186332666 / 1000000001 | TPS 20495.1 | ETA 11:01:40
Time 02:32:50 | Step 186536783 / 1000000001 | TPS 20411.6 | ETA 11:04:12
Time 02:33:00 | Step 186741536 / 1000000001 | TPS 20475.2 | ETA 11:01:59
Time 02:33:10 | Step 186947507 / 1000000001 | TPS 20597 | ETA 10:57:54
Time 02:33:20 | Step 187152379 / 1000000001 | TPS 20487.2 | ETA 11:01:15
Time 02:33:30 | Step 187356632 / 1000000001 | TPS 20425.3 | ETA 11:03:06
Time 02:33:40 | Step 187561361 / 1000000001 | TPS 20472.8 | ETA 11:01:23
Time 02:33:50 | Step 187766553 / 1000000001 | TPS 20519.1 | ETA 10:59:44
Time 02:34:00 | Step 187969289 / 1000000001 | TPS 20273.5 | ETA 11:07:33
Time 02:34:10 | Step 188170750 / 1000000001 | TPS 20146.1 | ETA 11:11:37
Time 02:34:20 | Step 188370879 / 1000000001 | TPS 20012.8 | ETA 11:15:55
Time 02:34:30 | Step 188585474 / 1000000001 | TPS 21459.5 | ETA 10:30:11
Time 02:34:40 | Step 188798588 / 1000000001 | TPS 21311.3 | ETA 10:34:24
Time 02:34:50 | Step 189012918 / 1000000001 | TPS 21433 | ETA 10:30:38
Time 02:35:00 | Step 189227455 / 1000000001 | TPS 21453.6 | ETA 10:29:51
Time 02:35:10 | Step 189441806 / 1000000001 | TPS 21434.9 | ETA 10:30:14
Time 02:35:20 | Step 189656909 / 1000000001 | TPS 21510.3 | ETA 10:27:52
Time 02:35:30 | Step 189870201 / 1000000001 | TPS 21329 | ETA 10:33:02
Time 02:35:40 | Step 190082007 / 1000000001 | TPS 21180.6 | ETA 10:37:18
Time 02:35:50 | Step 190296544 / 1000000001 | TPS 21453.5 | ETA 10:29:02
Time 02:36:00 | Step 190511314 / 1000000001 | TPS 21476.9 | ETA 10:28:11
Time 02:36:10 | Step 190725222 / 1000000001 | TPS 21390.8 | ETA 10:30:32
Time 02:36:20 | Step 190940049 / 1000000001 | TPS 21482.5 | ETA 10:27:41
Time 02:36:30 | Step 191154317 / 1000000001 | TPS 21426.6 | ETA 10:29:09
Time 02:36:40 | Step 191367846 / 1000000001 | TPS 21352.9 | ETA 10:31:09
Time 02:36:50 | Step 191582741 / 1000000001 | TPS 21489.5 | ETA 10:26:59
Time 02:37:00 | Step 191797626 / 1000000001 | TPS 21488.4 | ETA 10:26:51
Time 02:37:10 | Step 192012467 / 1000000001 | TPS 21484.1 | ETA 10:26:48
Time 02:37:20 | Step 192226969 / 1000000001 | TPS 21450.2 | ETA 10:27:38
Time 02:37:30 | Step 192442590 / 1000000001 | TPS 21562 | ETA 10:24:12
Time 02:37:40 | Step 192657375 / 1000000001 | TPS 21478.5 | ETA 10:26:28
Time 02:37:50 | Step 192873846 / 1000000001 | TPS 21647.1 | ETA 10:21:25
Time 02:38:00 | Step 193088117 / 1000000001 | TPS 21427.1 | ETA 10:27:38
Time 02:38:10 | Step 193303888 / 1000000001 | TPS 21577.1 | ETA 10:23:06
Time 02:38:20 | Step 193519051 / 1000000001 | TPS 21516.2 | ETA 10:24:42
Time 02:38:30 | Step 193734979 / 1000000001 | TPS 21592.7 | ETA 10:22:19
Time 02:38:40 | Step 193950747 / 1000000001 | TPS 21576.7 | ETA 10:22:37
Time 02:38:50 | Step 194163590 / 1000000001 | TPS 21284.3 | ETA 10:31:00
Time 02:39:00 | Step 194376384 / 1000000001 | TPS 21279.4 | ETA 10:30:59
Time 02:39:10 | Step 194588450 / 1000000001 | TPS 21206.5 | ETA 10:32:59
Time 02:39:20 | Step 194798095 / 1000000001 | TPS 20964.5 | ETA 10:40:07
Time 02:39:30 | Step 195006265 / 1000000001 | TPS 20816.8 | ETA 10:44:30
Time 02:39:40 | Step 195211988 / 1000000001 | TPS 20572.2 | ETA 10:52:00
Time 02:39:50 | Step 195416848 / 1000000001 | TPS 20485.9 | ETA 10:54:34
Time 02:40:00 | Step 195621917 / 1000000001 | TPS 20506.8 | ETA 10:53:44
Time 02:40:10 | Step 195824924 / 1000000001 | TPS 20300.5 | ETA 11:00:13
Time 02:40:20 | Step 196028805 / 1000000001 | TPS 20388 | ETA 10:57:13
Time 02:40:30 | Step 196233105 / 1000000001 | TPS 20429.8 | ETA 10:55:42
Time 02:40:40 | Step 196437860 / 1000000001 | TPS 20475.4 | ETA 10:54:05
Time 02:40:50 | Step 196641619 / 1000000001 | TPS 20375.7 | ETA 10:57:07
Time 02:41:00 | Step 196848894 / 1000000001 | TPS 20727.4 | ETA 10:45:48
Time 02:41:10 | Step 197056508 / 1000000001 | TPS 20761.4 | ETA 10:44:34
Time 02:41:20 | Step 197264237 / 1000000001 | TPS 20772.9 | ETA 10:44:03
Time 02:41:30 | Step 197472702 / 1000000001 | TPS 20846.5 | ETA 10:41:36
Time 02:41:40 | Step 197680165 / 1000000001 | TPS 20746.2 | ETA 10:44:33
Time 02:41:50 | Step 197888466 / 1000000001 | TPS 20830.1 | ETA 10:41:47
Time 02:42:00 | Step 198096082 / 1000000001 | TPS 20761.5 | ETA 10:43:44
Time 02:42:10 | Step 198303676 / 1000000001 | TPS 20759.3 | ETA 10:43:38
Time 02:42:20 | Step 198511975 / 1000000001 | TPS 20829.9 | ETA 10:41:17
Time 02:42:30 | Step 198719931 / 1000000001 | TPS 20795.4 | ETA 10:42:11
Time 02:42:40 | Step 198927665 / 1000000001 | TPS 20773.2 | ETA 10:42:42
Time 02:42:50 | Step 199133062 / 1000000001 | TPS 20539.7 | ETA 10:49:51
Time 02:43:00 | Step 199339447 / 1000000001 | TPS 20638.5 | ETA 10:46:34
Time 02:43:10 | Step 199545838 / 1000000001 | TPS 20639.1 | ETA 10:46:23
Time 02:43:20 | Step 199751541 / 1000000001 | TPS 20570.3 | ETA 10:48:23
Time 02:43:30 | Step 199957786 / 1000000001 | TPS 20624.5 | ETA 10:46:30
Time 02:43:40 | Step 200164412 / 1000000001 | TPS 20662.5 | ETA 10:45:09
Time 02:43:50 | Step 200371210 / 1000000001 | TPS 20679.6 | ETA 10:44:27
Time 02:44:00 | Step 200578490 / 1000000001 | TPS 20728 | ETA 10:42:47
Time 02:44:10 | Step 200786209 / 1000000001 | TPS 20771.8 | ETA 10:41:15
Time 02:44:20 | Step 200992681 / 1000000001 | TPS 20647.1 | ETA 10:44:58
Time 02:44:30 | Step 201195894 / 1000000001 | TPS 20321.2 | ETA 10:55:08
Time 02:44:40 | Step 201401141 / 1000000001 | TPS 20524.6 | ETA 10:48:29
Time 02:44:50 | Step 201604573 / 1000000001 | TPS 20343 | ETA 10:54:06
Time 02:45:00 | Step 201809109 / 1000000001 | TPS 20453.5 | ETA 10:50:24
Time 02:45:10 | Step 202014143 / 1000000001 | TPS 20503.3 | ETA 10:48:39
Time 02:45:20 | Step 202218430 / 1000000001 | TPS 20428.5 | ETA 10:50:52
Time 02:45:30 | Step 202423023 / 1000000001 | TPS 20459.3 | ETA 10:49:43
Time 02:45:40 | Step 202627683 / 1000000001 | TPS 20466 | ETA 10:49:20
Time 02:45:50 | Step 202832023 / 1000000001 | TPS 20434 | ETA 10:50:11
Time 02:46:00 | Step 203037353 / 1000000001 | TPS 20533 | ETA 10:46:53
Time 02:46:10 | Step 203243001 / 1000000001 | TPS 20564.7 | ETA 10:45:43
Time 02:46:20 | Step 203448441 / 1000000001 | TPS 20543.9 | ETA 10:46:13
Time 02:46:30 | Step 203654532 / 1000000001 | TPS 20609.1 | ETA 10:44:00
Time 02:46:40 | Step 203860581 / 1000000001 | TPS 20604.7 | ETA 10:43:58
Time 02:46:50 | Step 204066022 / 1000000001 | TPS 20544.1 | ETA 10:45:42
Time 02:47:00 | Step 204271736 / 1000000001 | TPS 20571.3 | ETA 10:44:41
Time 02:47:10 | Step 204479095 / 1000000001 | TPS 20735.8 | ETA 10:39:24
Time 02:47:20 | Step 204684087 / 1000000001 | TPS 20499.2 | ETA 10:46:37
Time 02:47:30 | Step 204890388 / 1000000001 | TPS 20630 | ETA 10:42:21
Time 02:47:40 | Step 205096365 / 1000000001 | TPS 20597.6 | ETA 10:43:11
Time 02:47:50 | Step 205301663 / 1000000001 | TPS 20529.8 | ETA 10:45:09
Time 02:48:00 | Step 205507781 / 1000000001 | TPS 20611.8 | ETA 10:42:25
Time 02:48:10 | Step 205713993 / 1000000001 | TPS 20621.2 | ETA 10:41:57
Time 02:48:20 | Step 205919428 / 1000000001 | TPS 20543.4 | ETA 10:44:13
Time 02:48:30 | Step 206123995 / 1000000001 | TPS 20456.7 | ETA 10:46:47
Time 02:48:40 | Step 206329498 / 1000000001 | TPS 20550.3 | ETA 10:43:40
Time 02:48:50 | Step 206535163 / 1000000001 | TPS 20566.5 | ETA 10:43:00
Time 02:49:00 | Step 206740961 / 1000000001 | TPS 20579.6 | ETA 10:42:25
Time 02:49:10 | Step 206948517 / 1000000001 | TPS 20755.6 | ETA 10:36:49
Time 02:49:20 | Step 207153801 / 1000000001 | TPS 20528.4 | ETA 10:43:42
[...]
Time 14:07:00 | Step 951720306 / 1000000001 | TPS 18108.5 | ETA 00:44:26
Time 14:07:10 | Step 951901684 / 1000000001 | TPS 18137.8 | ETA 00:44:11
Time 14:07:20 | Step 952081969 / 1000000001 | TPS 18028.5 | ETA 00:44:17
Time 14:07:30 | Step 952262371 / 1000000001 | TPS 18040.2 | ETA 00:44:06
Time 14:07:40 | Step 952443296 / 1000000001 | TPS 18092.4 | ETA 00:43:48
Time 14:07:50 | Step 952623524 / 1000000001 | TPS 18022.8 | ETA 00:43:48
Time 14:08:00 | Step 952803184 / 1000000001 | TPS 17966 | ETA 00:43:47
Time 14:08:10 | Step 952983441 / 1000000001 | TPS 18025.7 | ETA 00:43:28
Time 14:08:20 | Step 953164214 / 1000000001 | TPS 18077.3 | ETA 00:43:10
Time 14:08:30 | Step 953344323 / 1000000001 | TPS 18010.9 | ETA 00:43:10
Time 14:08:40 | Step 953523501 / 1000000001 | TPS 17917.7 | ETA 00:43:13
Time 14:08:50 | Step 953703302 / 1000000001 | TPS 17980.1 | ETA 00:42:54
Time 14:09:00 | Step 953883448 / 1000000001 | TPS 18014.6 | ETA 00:42:39
Time 14:09:10 | Step 954063705 / 1000000001 | TPS 18025.6 | ETA 00:42:28
Time 14:09:20 | Step 954244170 / 1000000001 | TPS 18046.5 | ETA 00:42:15
Time 14:09:30 | Step 954424092 / 1000000001 | TPS 17992.2 | ETA 00:42:13
Time 14:09:40 | Step 954604537 / 1000000001 | TPS 18044.4 | ETA 00:41:55
Time 14:09:50 | Step 954784876 / 1000000001 | TPS 18033.9 | ETA 00:41:47
Time 14:10:00 | Step 954964916 / 1000000001 | TPS 18003.9 | ETA 00:41:41
Time 14:10:10 | Step 955144590 / 1000000001 | TPS 17967.2 | ETA 00:41:36
Time 14:10:20 | Step 955324092 / 1000000001 | TPS 17950.2 | ETA 00:41:28
Time 14:10:30 | Step 955504398 / 1000000001 | TPS 18030.6 | ETA 00:41:07
Time 14:10:40 | Step 955685032 / 1000000001 | TPS 18063.4 | ETA 00:40:53
Time 14:10:50 | Step 955865244 / 1000000001 | TPS 18021.1 | ETA 00:40:49
Time 14:11:00 | Step 956044972 / 1000000001 | TPS 17972.8 | ETA 00:40:45
Time 14:11:10 | Step 956224870 / 1000000001 | TPS 17989.8 | ETA 00:40:33
Time 14:11:20 | Step 956404278 / 1000000001 | TPS 17940.8 | ETA 00:40:29
Time 14:11:30 | Step 956584294 / 1000000001 | TPS 18001.6 | ETA 00:40:11
Time 14:11:40 | Step 956763883 / 1000000001 | TPS 17958.9 | ETA 00:40:07
Time 14:11:50 | Step 956943277 / 1000000001 | TPS 17939.3 | ETA 00:40:00
Time 14:12:00 | Step 957122453 / 1000000001 | TPS 17917.6 | ETA 00:39:53
Time 14:12:10 | Step 957301865 / 1000000001 | TPS 17941.1 | ETA 00:39:39
Time 14:12:20 | Step 957481521 / 1000000001 | TPS 17965.5 | ETA 00:39:26
Time 14:12:30 | Step 957661600 / 1000000001 | TPS 18007.8 | ETA 00:39:11
Time 14:12:40 | Step 957841867 / 1000000001 | TPS 18026.7 | ETA 00:38:58
Time 14:12:50 | Step 958021718 / 1000000001 | TPS 17984.9 | ETA 00:38:54
Time 14:13:00 | Step 958200847 / 1000000001 | TPS 17912.9 | ETA 00:38:53
Time 14:13:10 | Step 958381664 / 1000000001 | TPS 18081.6 | ETA 00:38:21
Time 14:13:20 | Step 958562050 / 1000000001 | TPS 18038.6 | ETA 00:38:17
Time 14:13:30 | Step 958742361 / 1000000001 | TPS 18031.1 | ETA 00:38:08
Time 14:13:40 | Step 958922155 / 1000000001 | TPS 17979.4 | ETA 00:38:04
Time 14:13:50 | Step 959102589 / 1000000001 | TPS 18043.4 | ETA 00:37:46
Time 14:14:00 | Step 959282777 / 1000000001 | TPS 18018.6 | ETA 00:37:39
Time 14:14:10 | Step 959463071 / 1000000001 | TPS 18029.4 | ETA 00:37:28
Time 14:14:20 | Step 959642785 / 1000000001 | TPS 17971.3 | ETA 00:37:25
Time 14:14:30 | Step 959822625 / 1000000001 | TPS 17983.9 | ETA 00:37:14
Time 14:14:40 | Step 960002806 / 1000000001 | TPS 18018.1 | ETA 00:36:59
Time 14:14:50 | Step 960183052 / 1000000001 | TPS 18024.6 | ETA 00:36:49
Time 14:15:00 | Step 960363130 / 1000000001 | TPS 18007.8 | ETA 00:36:41
Time 14:15:10 | Step 960542978 / 1000000001 | TPS 17984.8 | ETA 00:36:33
Time 14:15:20 | Step 960723068 / 1000000001 | TPS 18008.9 | ETA 00:36:20
Time 14:15:30 | Step 960903548 / 1000000001 | TPS 18048 | ETA 00:36:06
Time 14:15:40 | Step 961084178 / 1000000001 | TPS 18063 | ETA 00:35:54
Time 14:15:50 | Step 961264510 / 1000000001 | TPS 18033.1 | ETA 00:35:48
Time 14:16:00 | Step 961444990 / 1000000001 | TPS 18047.9 | ETA 00:35:36
Time 14:16:10 | Step 961625490 / 1000000001 | TPS 18049.8 | ETA 00:35:26
Time 14:16:20 | Step 961805252 / 1000000001 | TPS 17976.2 | ETA 00:35:24
Time 14:16:30 | Step 961985582 / 1000000001 | TPS 18032.9 | ETA 00:35:08
Time 14:16:40 | Step 962166178 / 1000000001 | TPS 18059.5 | ETA 00:34:54
Time 14:16:50 | Step 962346867 / 1000000001 | TPS 18068.9 | ETA 00:34:43
Time 14:17:00 | Step 962527233 / 1000000001 | TPS 18036.6 | ETA 00:34:37
Time 14:17:10 | Step 962707554 / 1000000001 | TPS 18032.1 | ETA 00:34:28
Time 14:17:20 | Step 962887384 / 1000000001 | TPS 17982.9 | ETA 00:34:23
Time 14:17:30 | Step 963067492 / 1000000001 | TPS 18010.8 | ETA 00:34:10
Time 14:17:40 | Step 963247819 / 1000000001 | TPS 18032.6 | ETA 00:33:58
Time 14:17:50 | Step 963427455 / 1000000001 | TPS 17963.5 | ETA 00:33:55
Time 14:18:00 | Step 963607186 / 1000000001 | TPS 17973.1 | ETA 00:33:44
Time 14:18:10 | Step 963786776 / 1000000001 | TPS 17958.9 | ETA 00:33:36
Time 14:18:20 | Step 963967187 / 1000000001 | TPS 18041 | ETA 00:33:17
Time 14:18:30 | Step 964144973 / 1000000001 | TPS 17778.6 | ETA 00:33:36
Time 14:18:40 | Step 964324218 / 1000000001 | TPS 17924.5 | ETA 00:33:10
Time 14:18:50 | Step 964502802 / 1000000001 | TPS 17858.3 | ETA 00:33:07
Time 14:19:00 | Step 964684125 / 1000000001 | TPS 18132.2 | ETA 00:32:27
Time 14:19:10 | Step 964866780 / 1000000001 | TPS 18265.4 | ETA 00:32:03
Time 14:19:20 | Step 965048048 / 1000000001 | TPS 18126.7 | ETA 00:32:08
Time 14:19:30 | Step 965229011 / 1000000001 | TPS 18096.3 | ETA 00:32:01
Time 14:19:40 | Step 965409253 / 1000000001 | TPS 18024.2 | ETA 00:31:59
Time 14:19:50 | Step 965588920 / 1000000001 | TPS 17966.7 | ETA 00:31:55
Time 14:20:00 | Step 965768740 / 1000000001 | TPS 17981.9 | ETA 00:31:43
Time 14:20:10 | Step 965949282 / 1000000001 | TPS 18054.2 | ETA 00:31:26
Time 14:20:20 | Step 966129735 / 1000000001 | TPS 18045.1 | ETA 00:31:16
Time 14:20:30 | Step 966309439 / 1000000001 | TPS 17970.3 | ETA 00:31:14
Time 14:20:40 | Step 966489552 / 1000000001 | TPS 18011.3 | ETA 00:31:00
Time 14:20:50 | Step 966668937 / 1000000001 | TPS 17938.5 | ETA 00:30:58
Time 14:21:00 | Step 966848577 / 1000000001 | TPS 17964 | ETA 00:30:45
Time 14:21:10 | Step 967028655 / 1000000001 | TPS 18007.7 | ETA 00:30:30
Time 14:21:20 | Step 967209611 / 1000000001 | TPS 18095.6 | ETA 00:30:12
Time 14:21:30 | Step 967389755 / 1000000001 | TPS 18014.3 | ETA 00:30:10
Time 14:21:40 | Step 967569214 / 1000000001 | TPS 17945.8 | ETA 00:30:07
Time 14:21:50 | Step 967749638 / 1000000001 | TPS 18042.3 | ETA 00:29:47
Time 14:22:00 | Step 967928812 / 1000000001 | TPS 17917.3 | ETA 00:29:49
Time 14:22:10 | Step 968109170 / 1000000001 | TPS 18035.8 | ETA 00:29:28
Time 14:22:20 | Step 968289850 / 1000000001 | TPS 18067.9 | ETA 00:29:15
Time 14:22:30 | Step 968470566 / 1000000001 | TPS 18071.6 | ETA 00:29:04
Time 14:22:40 | Step 968651405 / 1000000001 | TPS 18083.9 | ETA 00:28:53
Time 14:22:50 | Step 968831858 / 1000000001 | TPS 18045.1 | ETA 00:28:47
Time 14:23:00 | Step 969011378 / 1000000001 | TPS 17952 | ETA 00:28:46
Time 14:23:10 | Step 969191423 / 1000000001 | TPS 18004.4 | ETA 00:28:31
Time 14:23:20 | Step 969370099 / 1000000001 | TPS 17867.6 | ETA 00:28:34
Time 14:23:30 | Step 969549178 / 1000000001 | TPS 17907.9 | ETA 00:28:20
Time 14:23:40 | Step 969728668 / 1000000001 | TPS 17948.9 | ETA 00:28:06
Time 14:23:50 | Step 969908491 / 1000000001 | TPS 17982.3 | ETA 00:27:53
Time 14:24:00 | Step 970088144 / 1000000001 | TPS 17965.3 | ETA 00:27:44
Time 14:24:10 | Step 970269285 / 1000000001 | TPS 18114.1 | ETA 00:27:21
Time 14:24:20 | Step 970449270 / 1000000001 | TPS 17998.5 | ETA 00:27:21
Time 14:24:30 | Step 970629201 / 1000000001 | TPS 17993 | ETA 00:27:12
Time 14:24:40 | Step 970809437 / 1000000001 | TPS 18023.6 | ETA 00:26:59
Time 14:24:50 | Step 970989802 / 1000000001 | TPS 18036.5 | ETA 00:26:48
Time 14:25:00 | Step 971169092 / 1000000001 | TPS 17928.9 | ETA 00:26:48
Time 14:25:10 | Step 971349279 / 1000000001 | TPS 18018.7 | ETA 00:26:30
Time 14:25:20 | Step 971528722 / 1000000001 | TPS 17944.3 | ETA 00:26:26
Time 14:25:30 | Step 971709317 / 1000000001 | TPS 18059.5 | ETA 00:26:06
Time 14:25:40 | Step 971889274 / 1000000001 | TPS 17995.6 | ETA 00:26:02
Time 14:25:50 | Step 972069222 / 1000000001 | TPS 17994.8 | ETA 00:25:52
Time 14:26:00 | Step 972249445 / 1000000001 | TPS 18022.2 | ETA 00:25:39
Time 14:26:10 | Step 972429266 / 1000000001 | TPS 17982.1 | ETA 00:25:33
Time 14:26:20 | Step 972609047 / 1000000001 | TPS 17978.1 | ETA 00:25:23
Time 14:26:30 | Step 972788653 / 1000000001 | TPS 17960.6 | ETA 00:25:15
Time 14:26:40 | Step 972969437 / 1000000001 | TPS 18078.2 | ETA 00:24:55
Time 14:26:50 | Step 973149737 / 1000000001 | TPS 18029.9 | ETA 00:24:49
Time 14:27:00 | Step 973330978 / 1000000001 | TPS 18124.1 | ETA 00:24:31
Time 14:27:10 | Step 973511349 / 1000000001 | TPS 18036.9 | ETA 00:24:28
Time 14:27:20 | Step 973691748 / 1000000001 | TPS 18039.8 | ETA 00:24:18
Time 14:27:30 | Step 973872136 / 1000000001 | TPS 18038.8 | ETA 00:24:08
Time 14:27:40 | Step 974051553 / 1000000001 | TPS 17941.5 | ETA 00:24:06
Time 14:27:50 | Step 974232268 / 1000000001 | TPS 18071.4 | ETA 00:23:45
Time 14:28:00 | Step 974412082 / 1000000001 | TPS 17981.4 | ETA 00:23:43
Time 14:28:10 | Step 974591780 / 1000000001 | TPS 17969.7 | ETA 00:23:33
Time 14:28:20 | Step 974770706 / 1000000001 | TPS 17892.6 | ETA 00:23:30
Time 14:28:30 | Step 974949516 / 1000000001 | TPS 17881 | ETA 00:23:20
Time 14:28:40 | Step 975129784 / 1000000001 | TPS 18026.7 | ETA 00:22:59
Time 14:28:50 | Step 975310506 / 1000000001 | TPS 18072.2 | ETA 00:22:46
Time 14:29:00 | Step 975490938 / 1000000001 | TPS 18043.2 | ETA 00:22:38
Time 14:29:10 | Step 975670997 / 1000000001 | TPS 18005.9 | ETA 00:22:31
Time 14:29:20 | Step 975852021 / 1000000001 | TPS 18102.4 | ETA 00:22:13
Time 14:29:30 | Step 976031997 / 1000000001 | TPS 17997.6 | ETA 00:22:11
Time 14:29:40 | Step 976212014 / 1000000001 | TPS 18001.7 | ETA 00:22:01
Time 14:29:50 | Step 976392287 / 1000000001 | TPS 18027.3 | ETA 00:21:49
Time 14:30:00 | Step 976572764 / 1000000001 | TPS 18047.7 | ETA 00:21:38
Time 14:30:10 | Step 976752425 / 1000000001 | TPS 17965.9 | ETA 00:21:33
Time 14:30:20 | Step 976930939 / 1000000001 | TPS 17851.3 | ETA 00:21:32
Time 14:30:30 | Step 977111223 / 1000000001 | TPS 18028.4 | ETA 00:21:09
Time 14:30:40 | Step 977291421 / 1000000001 | TPS 18019.8 | ETA 00:21:00
Time 14:30:50 | Step 977472168 / 1000000001 | TPS 18074.7 | ETA 00:20:46
Time 14:31:00 | Step 977652366 / 1000000001 | TPS 18019.8 | ETA 00:20:40
Time 14:31:10 | Step 977832867 / 1000000001 | TPS 18050 | ETA 00:20:28
Time 14:31:20 | Step 978013220 / 1000000001 | TPS 18035.2 | ETA 00:20:19
Time 14:31:30 | Step 978193631 / 1000000001 | TPS 18040.9 | ETA 00:20:08
Time 14:31:40 | Step 978374347 / 1000000001 | TPS 18071.6 | ETA 00:19:56
Time 14:31:50 | Step 978555453 / 1000000001 | TPS 18110.5 | ETA 00:19:44
Time 14:32:00 | Step 978735740 / 1000000001 | TPS 18028.6 | ETA 00:19:39
Time 14:32:10 | Step 978916312 / 1000000001 | TPS 18057.1 | ETA 00:19:27
Time 14:32:20 | Step 979095833 / 1000000001 | TPS 17952.1 | ETA 00:19:24
Time 14:32:30 | Step 979275588 / 1000000001 | TPS 17975.4 | ETA 00:19:12
Time 14:32:40 | Step 979455755 / 1000000001 | TPS 18016.7 | ETA 00:19:00
Time 14:32:50 | Step 979637624 / 1000000001 | TPS 18186.8 | ETA 00:18:39
Time 14:33:00 | Step 979818982 / 1000000001 | TPS 18135.8 | ETA 00:18:32
Time 14:33:10 | Step 979998789 / 1000000001 | TPS 17980.6 | ETA 00:18:32
Time 14:33:20 | Step 980178730 / 1000000001 | TPS 17994 | ETA 00:18:21
Time 14:33:30 | Step 980358430 / 1000000001 | TPS 17970 | ETA 00:18:13
Time 14:33:40 | Step 980537832 / 1000000001 | TPS 17940.1 | ETA 00:18:04
Time 14:33:50 | Step 980717594 / 1000000001 | TPS 17976.1 | ETA 00:17:52
Time 14:34:00 | Step 980897820 / 1000000001 | TPS 18022.6 | ETA 00:17:39
Time 14:34:10 | Step 981077347 / 1000000001 | TPS 17952.7 | ETA 00:17:34
Time 14:34:20 | Step 981257710 / 1000000001 | TPS 18036.2 | ETA 00:17:19
Time 14:34:30 | Step 981436913 / 1000000001 | TPS 17920.3 | ETA 00:17:15
Time 14:34:40 | Step 981616233 / 1000000001 | TPS 17931.9 | ETA 00:17:05
Time 14:34:50 | Step 981795699 / 1000000001 | TPS 17946.5 | ETA 00:16:54
Time 14:35:00 | Step 981974582 / 1000000001 | TPS 17888.3 | ETA 00:16:47
Time 14:35:10 | Step 982154550 / 1000000001 | TPS 17996.7 | ETA 00:16:31
Time 14:35:20 | Step 982335023 / 1000000001 | TPS 18047.3 | ETA 00:16:18
Time 14:35:30 | Step 982515706 / 1000000001 | TPS 18068.3 | ETA 00:16:07
Time 14:35:40 | Step 982695152 / 1000000001 | TPS 17944.5 | ETA 00:16:04
Time 14:35:50 | Step 982874950 / 1000000001 | TPS 17979.7 | ETA 00:15:52
Time 14:36:00 | Step 983054448 / 1000000001 | TPS 17949.8 | ETA 00:15:44
Time 14:36:10 | Step 983233726 / 1000000001 | TPS 17927.7 | ETA 00:15:35
Time 14:36:20 | Step 983413443 / 1000000001 | TPS 17971.7 | ETA 00:15:22
Time 14:36:30 | Step 983592946 / 1000000001 | TPS 17950.3 | ETA 00:15:14
Time 14:36:40 | Step 983773564 / 1000000001 | TPS 18061.8 | ETA 00:14:58
Time 14:36:50 | Step 983953977 / 1000000001 | TPS 18041.3 | ETA 00:14:49
Time 14:37:00 | Step 984134880 / 1000000001 | TPS 18090.3 | ETA 00:14:36
Time 14:37:10 | Step 984315737 / 1000000001 | TPS 18085.7 | ETA 00:14:27
Time 14:37:20 | Step 984496197 / 1000000001 | TPS 18045.9 | ETA 00:14:19
Time 14:37:30 | Step 984676675 / 1000000001 | TPS 18047.7 | ETA 00:14:09
Time 14:37:40 | Step 984856439 / 1000000001 | TPS 17976.4 | ETA 00:14:02
Time 14:37:50 | Step 985036574 / 1000000001 | TPS 18013.5 | ETA 00:13:50
Time 14:38:00 | Step 985216468 / 1000000001 | TPS 17989.4 | ETA 00:13:41
Time 14:38:10 | Step 985396803 / 1000000001 | TPS 18033.5 | ETA 00:13:29
Time 14:38:20 | Step 985576287 / 1000000001 | TPS 17948.4 | ETA 00:13:23
Time 14:38:30 | Step 985756979 / 1000000001 | TPS 18069.1 | ETA 00:13:08
Time 14:38:40 | Step 985937726 / 1000000001 | TPS 18074.6 | ETA 00:12:58
Time 14:38:50 | Step 986118344 / 1000000001 | TPS 18061.7 | ETA 00:12:48
Time 14:39:00 | Step 986299154 / 1000000001 | TPS 18081 | ETA 00:12:37
Time 14:39:10 | Step 986478527 / 1000000001 | TPS 17937.1 | ETA 00:12:33
Time 14:39:20 | Step 986658412 / 1000000001 | TPS 17988.4 | ETA 00:12:21
Time 14:39:30 | Step 986837987 / 1000000001 | TPS 17957.5 | ETA 00:12:12
Time 14:39:40 | Step 987017289 / 1000000001 | TPS 17930.2 | ETA 00:12:04
Time 14:39:50 | Step 987197497 / 1000000001 | TPS 18020.8 | ETA 00:11:50
Time 14:40:00 | Step 987377691 / 1000000001 | TPS 18019.3 | ETA 00:11:40
Time 14:40:10 | Step 987557678 / 1000000001 | TPS 17998.7 | ETA 00:11:31
Time 14:40:20 | Step 987737318 / 1000000001 | TPS 17964 | ETA 00:11:22
Time 14:40:30 | Step 987916750 / 1000000001 | TPS 17943.2 | ETA 00:11:13
Time 14:40:40 | Step 988096217 / 1000000001 | TPS 17946.7 | ETA 00:11:03
Time 14:40:50 | Step 988275449 / 1000000001 | TPS 17923.2 | ETA 00:10:54
Time 14:41:00 | Step 988455567 / 1000000001 | TPS 18011.7 | ETA 00:10:40
Time 14:41:10 | Step 988635865 / 1000000001 | TPS 18029.8 | ETA 00:10:30
Time 14:41:20 | Step 988815532 / 1000000001 | TPS 17966.6 | ETA 00:10:22
Time 14:41:30 | Step 988995699 / 1000000001 | TPS 18016.6 | ETA 00:10:10
Time 14:41:40 | Step 989175621 / 1000000001 | TPS 17992.2 | ETA 00:10:01
Time 14:41:50 | Step 989355738 / 1000000001 | TPS 18011.7 | ETA 00:09:50
Time 14:42:00 | Step 989535433 / 1000000001 | TPS 17969.5 | ETA 00:09:42
Time 14:42:10 | Step 989714330 / 1000000001 | TPS 17889.6 | ETA 00:09:34
Time 14:42:20 | Step 989893851 / 1000000001 | TPS 17952.1 | ETA 00:09:22
Time 14:42:30 | Step 990074117 / 1000000001 | TPS 18026.4 | ETA 00:09:10
Time 14:42:40 | Step 990254414 / 1000000001 | TPS 18029.7 | ETA 00:09:00
Time 14:42:50 | Step 990434890 / 1000000001 | TPS 18047.6 | ETA 00:08:49
Time 14:43:00 | Step 990615447 / 1000000001 | TPS 18055.6 | ETA 00:08:39
Time 14:43:10 | Step 990795679 / 1000000001 | TPS 18023.2 | ETA 00:08:30
Time 14:43:20 | Step 990975010 / 1000000001 | TPS 17933.1 | ETA 00:08:23
Time 14:43:30 | Step 991154737 / 1000000001 | TPS 17972.6 | ETA 00:08:12
Time 14:43:40 | Step 991334383 / 1000000001 | TPS 17964.5 | ETA 00:08:02
Time 14:43:50 | Step 991514934 / 1000000001 | TPS 18055.1 | ETA 00:07:49
Time 14:44:00 | Step 991695078 / 1000000001 | TPS 18014.4 | ETA 00:07:41
Time 14:44:10 | Step 991874498 / 1000000001 | TPS 17941.9 | ETA 00:07:32
Time 14:44:20 | Step 992053937 / 1000000001 | TPS 17943.8 | ETA 00:07:22
Time 14:44:30 | Step 992234124 / 1000000001 | TPS 18018.7 | ETA 00:07:10
Time 14:44:40 | Step 992414569 / 1000000001 | TPS 18044.4 | ETA 00:07:00
Time 14:44:50 | Step 992594864 / 1000000001 | TPS 18029.4 | ETA 00:06:50
Time 14:45:00 | Step 992775803 / 1000000001 | TPS 18093.8 | ETA 00:06:39
Time 14:45:10 | Step 992956576 / 1000000001 | TPS 18077.3 | ETA 00:06:29
Time 14:45:20 | Step 993137321 / 1000000001 | TPS 18074.5 | ETA 00:06:19
Time 14:45:30 | Step 993317203 / 1000000001 | TPS 17988.1 | ETA 00:06:11
Time 14:45:40 | Step 993499745 / 1000000001 | TPS 18254.1 | ETA 00:05:56
Time 14:45:50 | Step 993681278 / 1000000001 | TPS 18153.2 | ETA 00:05:48
Time 14:46:00 | Step 993861738 / 1000000001 | TPS 18046 | ETA 00:05:40
Time 14:46:10 | Step 994041188 / 1000000001 | TPS 17945 | ETA 00:05:32
Time 14:46:20 | Step 994219557 / 1000000001 | TPS 17836.8 | ETA 00:05:24
Time 14:46:30 | Step 994399569 / 1000000001 | TPS 18001.1 | ETA 00:05:11
Time 14:46:40 | Step 994579666 / 1000000001 | TPS 18009.7 | ETA 00:05:00
Time 14:46:50 | Step 994760382 / 1000000001 | TPS 18071.6 | ETA 00:04:49
Time 14:47:00 | Step 994940603 / 1000000001 | TPS 18022 | ETA 00:04:40
Time 14:47:10 | Step 995120275 / 1000000001 | TPS 17967.2 | ETA 00:04:31
Time 14:47:20 | Step 995300512 / 1000000001 | TPS 18023.7 | ETA 00:04:20
Time 14:47:30 | Step 995480821 / 1000000001 | TPS 18030.7 | ETA 00:04:10
Time 14:47:40 | Step 995661007 / 1000000001 | TPS 18018.5 | ETA 00:04:00
Time 14:47:50 | Step 995841120 / 1000000001 | TPS 18011.2 | ETA 00:03:50
Time 14:48:00 | Step 996021397 / 1000000001 | TPS 18027.6 | ETA 00:03:40
Time 14:48:10 | Step 996201064 / 1000000001 | TPS 17966.7 | ETA 00:03:31
Time 14:48:20 | Step 996381364 / 1000000001 | TPS 18029.9 | ETA 00:03:20
Time 14:48:30 | Step 996561575 / 1000000001 | TPS 18021.1 | ETA 00:03:10
Time 14:48:40 | Step 996741951 / 1000000001 | TPS 18037.6 | ETA 00:03:00
Time 14:48:50 | Step 996922685 / 1000000001 | TPS 18073.3 | ETA 00:02:50
Time 14:49:00 | Step 997102360 / 1000000001 | TPS 17967.4 | ETA 00:02:41
Time 14:49:10 | Step 997281884 / 1000000001 | TPS 17952.4 | ETA 00:02:31
Time 14:49:20 | Step 997461334 / 1000000001 | TPS 17944.9 | ETA 00:02:21
Time 14:49:30 | Step 997640069 / 1000000001 | TPS 17873.4 | ETA 00:02:12
Time 14:49:40 | Step 997818657 / 1000000001 | TPS 17858.7 | ETA 00:02:02
Time 14:49:50 | Step 997998280 / 1000000001 | TPS 17962.2 | ETA 00:01:51
Time 14:50:00 | Step 998177970 / 1000000001 | TPS 17969 | ETA 00:01:41
Time 14:50:10 | Step 998358150 / 1000000001 | TPS 18017.9 | ETA 00:01:31
Time 14:50:20 | Step 998538576 / 1000000001 | TPS 18042.6 | ETA 00:01:20
Time 14:50:30 | Step 998718091 / 1000000001 | TPS 17951.5 | ETA 00:01:11
Time 14:50:40 | Step 998898763 / 1000000001 | TPS 18067.1 | ETA 00:01:00
Time 14:50:50 | Step 999078577 / 1000000001 | TPS 17981.3 | ETA 00:00:51
Time 14:51:00 | Step 999257948 / 1000000001 | TPS 17937 | ETA 00:00:41
Time 14:51:10 | Step 999438065 / 1000000001 | TPS 18011.6 | ETA 00:00:31
Time 14:51:20 | Step 999618029 / 1000000001 | TPS 17996.4 | ETA 00:00:21
Time 14:51:30 | Step 999797594 / 1000000001 | TPS 17956.5 | ETA 00:00:11
Time 14:51:40 | Step 999977749 / 1000000001 | TPS 18015.4 | ETA 00:00:01
Time 14:51:42 | Step 1000000001 / 1000000001 | TPS 17991 | ETA 00:00:00
Average TPS: 18691.1
---------
-- Neighborlist stats:
120411930 normal updates / 3333334 forced updates / 0 dangerous updates
n_neigh_min: 0 / n_neigh_max: 14 / n_neigh_avg: 12.7861
shortest rebuild period: 5
-- Cell list stats:
Dimension: 45, 45, 45
n_min    : 0 / n_max: 6 / n_avg: 0.0740741
** run complete **
