HOOMD-blue 2.9.6 CUDA (11.1) SINGLE SSE SSE2 
Compiled: 05/10/21
Copyright (c) 2009-2019 The Regents of the University of Michigan.
-----
You are using HOOMD-blue. Please cite the following:
* J A Anderson, J Glaser, and S C Glotzer. "HOOMD-blue: A Python package for
  high-performance molecular dynamics and hard particle Monte Carlo
  simulations", Computational Materials Science 173 (2020) 109363
-----
HOOMD-blue is running on the following GPU(s):
 [0] NVIDIA A100-SXM4-80GB 108 SM_8.0 @ 1.41 GHz, 81050 MiB DRAM, MNG
Running on the GPU
Charges (in mV) are:
[-54.0, 44.0]
[95.0, 105.0]
Particle types: ['N', 'P']
Radius of N, P and ionic radii(s):  [95.0, 105.0, 99.75]
radiusN: 95.0
radiusP: 105.0
Electrostatic prefactors are:  {('N', 'N'): 299.83507046393714, ('N', 'P'): -256.52556028581284, ('P', 'P'): 220.02192305215914}
Steric prefactors are:  {('N', 'N'): 368.3741785809289, ('N', 'P'): 387.76229324308304, ('P', 'P'): 407.15040790523716}
Lattice_type:  sc
Lattice site is: P
Putting satellite particles at a distance of 286.000000 from center particles
num_satellite_per_center: 1
snapshot_creation.py:075  |      center_unit_cell = lattice(a=lattice_spacing*2*radius_latticesite)
center_in_uc: 1
satellite_in_uc: 1
Total number of particles in each unit cell: 2
Total lattice spacing: 885.78
Setting mass N: 0.740633 (mass P: 1.000000)
['P', 'N']
Total number of lattice sites: 6750
[[-6200.45996094 -6200.45996094 -6200.45996094]
 [-6200.45996094 -5914.45996094 -6200.45996094]
 [-6200.45996094 -6200.45996094 -5314.68017578]
 ...
 [ 6200.45947266  6486.46044922  5314.68017578]
 [ 6200.45947266  6200.45947266  6200.45947266]
 [ 6200.45947266  6486.46044922  6200.45947266]]
Seed positions:
None
snapshot_creation.py:172  |      system=hoomd.init.read_snapshot(snapshot)
notice(2): Group "all" created containing 6750 particles
Box size:
Box: Lx=13286.7001953125 Ly=13286.7001953125 Lz=13286.7001953125 xy=0.0 xz=0.0 yz=0.0 dimensions=3
max_x,max_y,max_z
6643.35009765625 6643.35009765625 6643.35009765625
snapshot_creation.py:183  |          hoomd.update.box_resize(Lx = 2.*max_x+8*max_radius, Ly = 2.*max_y+8*max_radius, Lz=2.*max_z+8*max_radius, period=None,scale_particles=False)
Updated box size in presence of closed walls:
Box: Lx=14126.7001953125 Ly=14126.7001953125 Lz=14126.7001953125 xy=0.0 xz=0.0 yz=0.0 dimensions=3
Number of particles in system before adding any seed crystal:  6750
Removing lattice particles that overlap with particles of the seed crystal.........
add_interactions.py:006  |  nl = hoomd.md.nlist.cell()
add_interactions.py:007  |  nl.reset_exclusions(exclusions = ['1-2', 'body','constraint'])
notice(2): -- Neighborlist exclusion statistics -- :
notice(2): Particles with 0 exclusions             : 6750
notice(2): Neighbors included by diameter          : no
notice(2): Neighbors excluded when in the same body: no
Turning on closed walls along x/y/z with max_z: 7063.35009765625
add_interactions.py:032  |      wall_force = hoomd.md.wall.slj(wall_group,r_cut=max_radius*(2.0**(1.0/6.0)))
notice(2): Notice: slj set d_max=210.0
add_interactions.py:033  |      wall_force.force_coeff.set('N',epsilon=1,sigma=radiusN,alpha=0,r_cut=radiusN*(2.0**(1.0/6.0)))
add_interactions.py:034  |      wall_force.force_coeff.set('P',epsilon=1,sigma=radiusP,alpha=0,r_cut=radiusP*(2.0**(1.0/6.0)))
add_interactions.py:057  |  table = hoomd.md.pair.table(width=5000,nlist=nl)
*******************************************************************************************************************************************************************************
Setting potential for pair ('N', 'N') with radius_sum 190.0
add_interactions.py:080  |          table.pair_coeff.set(typei,typej, func=screened_potential_shifted_force,rmin=1.00005*radius_sum, rmax=potential_range,coeff=dict(radius_sum=radius_sum, steric_prefactor=steric_prefactors[key],electrostatic_prefactor=electrostatic_prefactors[key],H=sum_brush_lengths,d=debye_length),)
*******************************************************************************************************************************************************************************
Setting potential for pair ('N', 'P') with radius_sum 200.0
add_interactions.py:080  |          table.pair_coeff.set(typei,typej, func=screened_potential_shifted_force,rmin=1.00005*radius_sum, rmax=potential_range,coeff=dict(radius_sum=radius_sum, steric_prefactor=steric_prefactors[key],electrostatic_prefactor=electrostatic_prefactors[key],H=sum_brush_lengths,d=debye_length),)
*******************************************************************************************************************************************************************************
Setting potential for pair ('P', 'P') with radius_sum 210.0
add_interactions.py:080  |          table.pair_coeff.set(typei,typej, func=screened_potential_shifted_force,rmin=1.00005*radius_sum, rmax=potential_range,coeff=dict(radius_sum=radius_sum, steric_prefactor=steric_prefactors[key],electrostatic_prefactor=electrostatic_prefactors[key],H=sum_brush_lengths,d=debye_length),)
i,j,key,potential_min, potential_min_location
(0, 0, ('N', 'N'), -1.6940658945086007e-21, 290.8240000000127)
(0, 1, ('N', 'P'), -5.800411394442331, 218.64042720000785)
(1, 1, ('P', 'P'), 0.0, 310.82399999993)
run_dlvo_spheres_metal.py:011  |  all = hoomd.group.all()
run_dlvo_spheres_metal.py:000  |  from add_interactions import *

if temperature.find(':')>0:
    temp_list = np.array( temperature.split(':') ,dtype=float)
    assert len(temp_list)%2==0 and len(temp_list)>=0,"must give an even number of temperature arguments"
    temp_list = [tuple(x) for x in temp_list.reshape((-1,2))]
    temperature = hoomd.variant.linear_interp(points=temp_list)
else:
    temperature = float(temperature)

all = hoomd.group.all()


hoomd.analyze.log(filename=outputlogfile,
mode: langevin
run_dlvo_spheres_metal.py:029  |      hoomd.md.integrate.mode_standard(dt=dt)
run_dlvo_spheres_metal.py:030  |      ld=hoomd.md.integrate.langevin(group=all, kT=temperature, seed=seed)
notice(2): integrate.langevin/bd is using specified gamma values
Using gamma value as: 0.001
run_dlvo_spheres_metal.py:033  |          ld.set_gamma(particle_type,gamma)
run_dlvo_spheres_metal.py:033  |          ld.set_gamma(particle_type,gamma)
run_dlvo_spheres_metal.py:057  |  hoomd.dump.gsd(outputgsdfile, period=dump_frequency, group=all, overwrite=True,dynamic=['attribute','momentum','topology'])
run_dlvo_spheres_metal.py:058  |  hoomd.run(nsteps)
** starting run **
Time 00:00:12 | Step 207737 / 1000000001 | TPS 20773.6 | ETA 13:22:07
Time 00:00:22 | Step 414057 / 1000000001 | TPS 20631.8 | ETA 13:27:28
Time 00:00:32 | Step 619717 / 1000000001 | TPS 20565.9 | ETA 13:29:53
Time 00:00:42 | Step 824113 / 1000000001 | TPS 20439.6 | ETA 13:34:44
Time 00:00:52 | Step 1031747 / 1000000001 | TPS 20763.4 | ETA 13:21:52
Time 00:01:02 | Step 1237959 / 1000000001 | TPS 20621.1 | ETA 13:27:13
Time 00:01:12 | Step 1442997 / 1000000001 | TPS 20503.8 | ETA 13:31:41
Time 00:01:22 | Step 1647128 / 1000000001 | TPS 20413 | ETA 13:35:07
Time 00:01:32 | Step 1850982 / 1000000001 | TPS 20385.3 | ETA 13:36:04
Time 00:01:42 | Step 2054197 / 1000000001 | TPS 20321.5 | ETA 13:38:27
Time 00:01:52 | Step 2257781 / 1000000001 | TPS 20358.4 | ETA 13:36:48
Time 00:02:02 | Step 2463635 / 1000000001 | TPS 20585.4 | ETA 13:27:38
Time 00:02:12 | Step 2670027 / 1000000001 | TPS 20639.2 | ETA 13:25:22
Time 00:02:22 | Step 2875073 / 1000000001 | TPS 20504.6 | ETA 13:30:29
Time 00:02:32 | Step 3077268 / 1000000001 | TPS 20219.4 | ETA 13:41:45
Time 00:02:42 | Step 3281633 / 1000000001 | TPS 20436.5 | ETA 13:32:51
Time 00:02:52 | Step 3485848 / 1000000001 | TPS 20421.5 | ETA 13:33:17
Time 00:03:02 | Step 3689244 / 1000000001 | TPS 20339.5 | ETA 13:36:24
Time 00:03:12 | Step 3892381 / 1000000001 | TPS 20313.7 | ETA 13:37:16
Time 00:03:22 | Step 4092740 / 1000000001 | TPS 20035.9 | ETA 13:48:26
Time 00:03:32 | Step 4296781 / 1000000001 | TPS 20404.1 | ETA 13:33:19
Time 00:03:42 | Step 4500006 / 1000000001 | TPS 20322.5 | ETA 13:36:25
Time 00:03:52 | Step 4704223 / 1000000001 | TPS 20421.7 | ETA 13:32:17
Time 00:04:02 | Step 4908614 / 1000000001 | TPS 20439 | ETA 13:31:25
Time 00:04:12 | Step 5111556 / 1000000001 | TPS 20294.2 | ETA 13:37:03
Time 00:04:22 | Step 5314198 / 1000000001 | TPS 20264.1 | ETA 13:38:05
Time 00:04:32 | Step 5518039 / 1000000001 | TPS 20384.1 | ETA 13:33:07
Time 00:04:42 | Step 5722188 / 1000000001 | TPS 20414.9 | ETA 13:31:43
Time 00:04:52 | Step 5925380 / 1000000001 | TPS 20319.1 | ETA 13:35:23
Time 00:05:02 | Step 6127579 / 1000000001 | TPS 20219.9 | ETA 13:39:13
Time 00:05:12 | Step 6330792 / 1000000001 | TPS 20321.3 | ETA 13:34:57
Time 00:05:22 | Step 6534191 / 1000000001 | TPS 20339.9 | ETA 13:34:03
Time 00:05:32 | Step 6736664 / 1000000001 | TPS 20247.2 | ETA 13:37:36
Time 00:05:42 | Step 6939273 / 1000000001 | TPS 20260.8 | ETA 13:36:53
Time 00:05:52 | Step 7140757 / 1000000001 | TPS 20148.4 | ETA 13:41:17
Time 00:06:02 | Step 7342552 / 1000000001 | TPS 20179.4 | ETA 13:39:51
Time 00:06:12 | Step 7544394 / 1000000001 | TPS 20184.2 | ETA 13:39:30
Time 00:06:22 | Step 7747679 / 1000000001 | TPS 20328.5 | ETA 13:33:30
Time 00:06:32 | Step 7949732 / 1000000001 | TPS 20205.2 | ETA 13:38:18
Time 00:06:42 | Step 8152101 / 1000000001 | TPS 20236.8 | ETA 13:36:52
Time 00:06:52 | Step 8355588 / 1000000001 | TPS 20348.7 | ETA 13:32:12
Time 00:07:02 | Step 8558366 / 1000000001 | TPS 20277.7 | ETA 13:34:53
Time 00:07:12 | Step 8761331 / 1000000001 | TPS 20296.5 | ETA 13:33:57
Time 00:07:22 | Step 8963876 / 1000000001 | TPS 20254.4 | ETA 13:35:29
Time 00:07:32 | Step 9164733 / 1000000001 | TPS 20085.5 | ETA 13:42:10
Time 00:07:42 | Step 9366906 / 1000000001 | TPS 20217.3 | ETA 13:36:39
Time 00:07:52 | Step 9569936 / 1000000001 | TPS 20302.8 | ETA 13:33:02
Time 00:08:02 | Step 9771865 / 1000000001 | TPS 20192.8 | ETA 13:37:18
Time 00:08:12 | Step 9974512 / 1000000001 | TPS 20264.7 | ETA 13:34:14
Time 00:08:22 | Step 10173055 / 1000000001 | TPS 19854.3 | ETA 13:50:54
Time 00:08:32 | Step 10376308 / 1000000001 | TPS 20325.1 | ETA 13:31:29
Time 00:08:42 | Step 10579439 / 1000000001 | TPS 20313 | ETA 13:31:48
Time 00:08:52 | Step 10780827 / 1000000001 | TPS 20138.7 | ETA 13:38:40
Time 00:09:02 | Step 10985861 / 1000000001 | TPS 20503.4 | ETA 13:23:56
Time 00:09:12 | Step 11188953 / 1000000001 | TPS 20309.1 | ETA 13:31:28
Time 00:09:22 | Step 11392441 / 1000000001 | TPS 20348.7 | ETA 13:29:43
Time 00:09:32 | Step 11596051 / 1000000001 | TPS 20361 | ETA 13:29:04
Time 00:09:42 | Step 11798953 / 1000000001 | TPS 20290.1 | ETA 13:31:43
Time 00:09:52 | Step 12001201 / 1000000001 | TPS 20224.6 | ETA 13:34:11
Time 00:10:02 | Step 12204127 / 1000000001 | TPS 20292.5 | ETA 13:31:17
Time 00:10:12 | Step 12407477 / 1000000001 | TPS 20334.9 | ETA 13:29:26
Time 00:10:22 | Step 12609533 / 1000000001 | TPS 20205.5 | ETA 13:34:27
Time 00:10:32 | Step 12812277 / 1000000001 | TPS 20274.2 | ETA 13:31:31
Time 00:10:42 | Step 13014016 / 1000000001 | TPS 20173.9 | ETA 13:35:24
Time 00:10:52 | Step 13216324 / 1000000001 | TPS 20230.8 | ETA 13:32:56
Time 00:11:02 | Step 13420074 / 1000000001 | TPS 20374.9 | ETA 13:27:01
Time 00:11:12 | Step 13622281 / 1000000001 | TPS 20220.6 | ETA 13:33:00
Time 00:11:22 | Step 13826317 / 1000000001 | TPS 20403.5 | ETA 13:25:33
Time 00:11:32 | Step 14028064 / 1000000001 | TPS 20174.6 | ETA 13:34:32
Time 00:11:42 | Step 14231733 / 1000000001 | TPS 20366.9 | ETA 13:26:40
Time 00:11:52 | Step 14434147 / 1000000001 | TPS 20241.4 | ETA 13:31:30
Time 00:12:02 | Step 14637608 / 1000000001 | TPS 20346.1 | ETA 13:27:10
Time 00:12:12 | Step 14838855 / 1000000001 | TPS 20124.7 | ETA 13:35:52
Time 00:12:22 | Step 15039915 / 1000000001 | TPS 20105.9 | ETA 13:36:28
Time 00:12:32 | Step 15242791 / 1000000001 | TPS 20287.6 | ETA 13:28:59
Time 00:12:42 | Step 15445016 / 1000000001 | TPS 20222.5 | ETA 13:31:26
Time 00:12:52 | Step 15647845 / 1000000001 | TPS 20282.7 | ETA 13:28:51
Time 00:13:02 | Step 15849354 / 1000000001 | TPS 20150.8 | ETA 13:33:59
Time 00:13:12 | Step 16051081 / 1000000001 | TPS 20172.6 | ETA 13:32:56
Time 00:13:22 | Step 16255297 / 1000000001 | TPS 20421.5 | ETA 13:22:52
Time 00:13:32 | Step 16458162 / 1000000001 | TPS 20286.5 | ETA 13:28:02
Time 00:13:42 | Step 16660599 / 1000000001 | TPS 20243.7 | ETA 13:29:35
Time 00:13:52 | Step 16863167 / 1000000001 | TPS 20256.8 | ETA 13:28:53
Time 00:14:02 | Step 17064982 / 1000000001 | TPS 20181.5 | ETA 13:31:44
Time 00:14:12 | Step 17268896 / 1000000001 | TPS 20391.4 | ETA 13:23:13
Time 00:14:22 | Step 17471096 / 1000000001 | TPS 20220 | ETA 13:29:52
Time 00:14:32 | Step 17674554 / 1000000001 | TPS 20345.8 | ETA 13:24:41
Time 00:14:42 | Step 17877600 / 1000000001 | TPS 20304.5 | ETA 13:26:09
Time 00:14:52 | Step 18079371 / 1000000001 | TPS 20177.1 | ETA 13:31:05
Time 00:15:02 | Step 18281558 / 1000000001 | TPS 20218.6 | ETA 13:29:15
Time 00:15:12 | Step 18484782 / 1000000001 | TPS 20322.4 | ETA 13:24:57
Time 00:15:22 | Step 18687513 / 1000000001 | TPS 20273 | ETA 13:26:44
Time 00:15:32 | Step 18890545 / 1000000001 | TPS 20303.1 | ETA 13:25:23
Time 00:15:42 | Step 19091938 / 1000000001 | TPS 20139.2 | ETA 13:31:46
Time 00:15:52 | Step 19294591 / 1000000001 | TPS 20265.3 | ETA 13:26:33
Time 00:16:02 | Step 19496767 / 1000000001 | TPS 20217.6 | ETA 13:28:17
Time 00:16:12 | Step 19699199 / 1000000001 | TPS 20243.2 | ETA 13:27:06
Time 00:16:22 | Step 19901838 / 1000000001 | TPS 20263.9 | ETA 13:26:06
Time 00:16:32 | Step 20103957 / 1000000001 | TPS 20211.7 | ETA 13:28:01
Time 00:16:42 | Step 20306117 / 1000000001 | TPS 20215.9 | ETA 13:27:41
Time 00:16:52 | Step 20510136 / 1000000001 | TPS 20401.8 | ETA 13:20:09
Time 00:17:02 | Step 20714376 / 1000000001 | TPS 20423.9 | ETA 13:19:07
Time 00:17:12 | Step 20917279 / 1000000001 | TPS 20290.3 | ETA 13:24:13
Time 00:17:22 | Step 21119372 / 1000000001 | TPS 20209.3 | ETA 13:27:17
Time 00:17:32 | Step 21323266 / 1000000001 | TPS 20389.2 | ETA 13:19:59
Time 00:17:42 | Step 21526454 / 1000000001 | TPS 20318.7 | ETA 13:22:36
Time 00:17:52 | Step 21728850 / 1000000001 | TPS 20239.6 | ETA 13:25:34
Time 00:18:02 | Step 21932111 / 1000000001 | TPS 20326.1 | ETA 13:21:58
Time 00:18:12 | Step 22133205 / 1000000001 | TPS 20109.4 | ETA 13:30:27
Time 00:18:22 | Step 22334755 / 1000000001 | TPS 20154.8 | ETA 13:28:27
Time 00:18:32 | Step 22537939 / 1000000001 | TPS 20318.3 | ETA 13:21:47
Time 00:18:42 | Step 22740837 / 1000000001 | TPS 20289.8 | ETA 13:22:45
Time 00:18:52 | Step 22942682 / 1000000001 | TPS 20184.4 | ETA 13:26:46
Time 00:19:02 | Step 23143675 / 1000000001 | TPS 20099.3 | ETA 13:30:01
Time 00:19:12 | Step 23345255 / 1000000001 | TPS 20157.9 | ETA 13:27:30
Time 00:19:22 | Step 23547064 / 1000000001 | TPS 20180.8 | ETA 13:26:25
Time 00:19:32 | Step 23748745 / 1000000001 | TPS 20167.9 | ETA 13:26:46
Time 00:19:42 | Step 23951386 / 1000000001 | TPS 20264 | ETA 13:22:46
Time 00:19:52 | Step 24153597 / 1000000001 | TPS 20221.1 | ETA 13:24:18
Time 00:20:02 | Step 24356895 / 1000000001 | TPS 20329.7 | ETA 13:19:50
Time 00:20:12 | Step 24559462 / 1000000001 | TPS 20256.7 | ETA 13:22:34
Time 00:20:22 | Step 24762115 / 1000000001 | TPS 20265.3 | ETA 13:22:03
Time 00:20:32 | Step 24965610 / 1000000001 | TPS 20349.4 | ETA 13:18:34
Time 00:20:42 | Step 25167466 / 1000000001 | TPS 20185.6 | ETA 13:24:53
Time 00:20:52 | Step 25368421 / 1000000001 | TPS 20095.5 | ETA 13:28:20
Time 00:21:02 | Step 25569738 / 1000000001 | TPS 20131.6 | ETA 13:26:42
Time 00:21:12 | Step 25771645 / 1000000001 | TPS 20190.6 | ETA 13:24:11
Time 00:21:22 | Step 25973983 / 1000000001 | TPS 20233.8 | ETA 13:22:18
Time 00:21:32 | Step 26177238 / 1000000001 | TPS 20325.4 | ETA 13:18:31
Time 00:21:42 | Step 26380734 / 1000000001 | TPS 20349.6 | ETA 13:17:24
Time 00:21:52 | Step 26583779 / 1000000001 | TPS 20304.4 | ETA 13:19:01
Time 00:22:02 | Step 26786997 / 1000000001 | TPS 20321.6 | ETA 13:18:10
Time 00:22:12 | Step 26989779 / 1000000001 | TPS 20278.1 | ETA 13:19:43
Time 00:22:22 | Step 27189331 / 1000000001 | TPS 19955.1 | ETA 13:32:29
Time 00:22:32 | Step 27391020 / 1000000001 | TPS 20168.8 | ETA 13:23:43
Time 00:22:42 | Step 27593188 / 1000000001 | TPS 20216.7 | ETA 13:21:39
Time 00:22:52 | Step 27795434 / 1000000001 | TPS 20224.5 | ETA 13:21:10
Time 00:23:02 | Step 27997978 / 1000000001 | TPS 20254.3 | ETA 13:19:49
Time 00:23:12 | Step 28199156 / 1000000001 | TPS 20117.8 | ETA 13:25:05
Time 00:23:22 | Step 28401621 / 1000000001 | TPS 20246.5 | ETA 13:19:48
Time 00:23:32 | Step 28604508 / 1000000001 | TPS 20288.6 | ETA 13:17:58
Time 00:23:42 | Step 28807642 / 1000000001 | TPS 20313.3 | ETA 13:16:50
Time 00:23:52 | Step 29010092 / 1000000001 | TPS 20245 | ETA 13:19:22
Time 00:24:02 | Step 29213385 / 1000000001 | TPS 20329.3 | ETA 13:15:53
Time 00:24:12 | Step 29415799 / 1000000001 | TPS 20241.4 | ETA 13:19:10
Time 00:24:22 | Step 29618796 / 1000000001 | TPS 20299.7 | ETA 13:16:42
Time 00:24:32 | Step 29821180 / 1000000001 | TPS 20238.3 | ETA 13:18:57
Time 00:24:42 | Step 30025467 / 1000000001 | TPS 20428.7 | ETA 13:11:20
Time 00:24:52 | Step 30227738 / 1000000001 | TPS 20227.1 | ETA 13:19:04
Time 00:25:02 | Step 30431458 / 1000000001 | TPS 20372 | ETA 13:13:13
Time 00:25:12 | Step 30634833 / 1000000001 | TPS 20337.5 | ETA 13:14:24
Time 00:25:22 | Step 30840169 / 1000000001 | TPS 20533.4 | ETA 13:06:39
Time 00:25:32 | Step 31043857 / 1000000001 | TPS 20368.6 | ETA 13:12:50
Time 00:25:42 | Step 31245795 / 1000000001 | TPS 20193.7 | ETA 13:19:32
Time 00:25:52 | Step 31448595 / 1000000001 | TPS 20280 | ETA 13:15:58
Time 00:26:02 | Step 31651033 / 1000000001 | TPS 20243.7 | ETA 13:17:14
Time 00:26:12 | Step 31853716 / 1000000001 | TPS 20268.3 | ETA 13:16:06
Time 00:26:22 | Step 32056419 / 1000000001 | TPS 20270.2 | ETA 13:15:51
Time 00:26:32 | Step 32258909 / 1000000001 | TPS 20249 | ETA 13:16:32
Time 00:26:42 | Step 32459614 / 1000000001 | TPS 20070.5 | ETA 13:23:27
Time 00:26:52 | Step 32662781 / 1000000001 | TPS 20316.5 | ETA 13:13:33
Time 00:27:02 | Step 32865550 / 1000000001 | TPS 20276.9 | ETA 13:14:56
Time 00:27:12 | Step 33068267 / 1000000001 | TPS 20271.7 | ETA 13:14:58
Time 00:27:22 | Step 33272101 / 1000000001 | TPS 20383.1 | ETA 13:10:27
Time 00:27:32 | Step 33474575 / 1000000001 | TPS 20247.4 | ETA 13:15:35
Time 00:27:42 | Step 33678599 / 1000000001 | TPS 20402.4 | ETA 13:09:23
Time 00:27:52 | Step 33881698 / 1000000001 | TPS 20309.8 | ETA 13:12:48
Time 00:28:02 | Step 34083998 / 1000000001 | TPS 20230 | ETA 13:15:46
Time 00:28:12 | Step 34288578 / 1000000001 | TPS 20457.9 | ETA 13:06:44
Time 00:28:22 | Step 34491601 / 1000000001 | TPS 20302.2 | ETA 13:12:36
Time 00:28:32 | Step 34693469 / 1000000001 | TPS 20186.8 | ETA 13:16:58
Time 00:28:42 | Step 34894281 / 1000000001 | TPS 20081.1 | ETA 13:21:00
Time 00:28:52 | Step 35095281 / 1000000001 | TPS 20099.9 | ETA 13:20:05
Time 00:29:02 | Step 35298741 / 1000000001 | TPS 20346 | ETA 13:10:14
Time 00:29:12 | Step 35502250 / 1000000001 | TPS 20350.9 | ETA 13:09:53
Time 00:29:22 | Step 35703901 / 1000000001 | TPS 20164.7 | ETA 13:17:00
Time 00:29:32 | Step 35906125 / 1000000001 | TPS 20222.2 | ETA 13:14:34
Time 00:29:42 | Step 36107964 / 1000000001 | TPS 20183.8 | ETA 13:15:55
Time 00:29:52 | Step 36310796 / 1000000001 | TPS 20283.2 | ETA 13:11:51
Time 00:30:02 | Step 36513427 / 1000000001 | TPS 20263.1 | ETA 13:12:28
Time 00:30:12 | Step 36715295 / 1000000001 | TPS 20186.7 | ETA 13:15:18
Time 00:30:22 | Step 36917686 / 1000000001 | TPS 20239.1 | ETA 13:13:05
Time 00:30:32 | Step 37119670 / 1000000001 | TPS 20198.3 | ETA 13:14:31
Time 00:30:42 | Step 37322348 / 1000000001 | TPS 20267.8 | ETA 13:11:37
Time 00:30:52 | Step 37525816 / 1000000001 | TPS 20346.8 | ETA 13:08:23
Time 00:31:02 | Step 37727401 / 1000000001 | TPS 20158.3 | ETA 13:15:35
Time 00:31:12 | Step 37928845 / 1000000001 | TPS 20144.4 | ETA 13:15:58
Time 00:31:22 | Step 38131489 / 1000000001 | TPS 20264.3 | ETA 13:11:06
Time 00:31:32 | Step 38334393 / 1000000001 | TPS 20290.4 | ETA 13:09:55
Time 00:31:42 | Step 38537320 / 1000000001 | TPS 20292.6 | ETA 13:09:39
Time 00:31:52 | Step 38738871 / 1000000001 | TPS 20155.1 | ETA 13:14:53
Time 00:32:02 | Step 38941465 / 1000000001 | TPS 20259.3 | ETA 13:10:37
Time 00:32:12 | Step 39144294 / 1000000001 | TPS 20282.9 | ETA 13:09:32
Time 00:32:22 | Step 39348009 / 1000000001 | TPS 20371.5 | ETA 13:05:56
Time 00:32:32 | Step 39552045 / 1000000001 | TPS 20403.6 | ETA 13:04:32
Time 00:32:42 | Step 39754504 / 1000000001 | TPS 20245.9 | ETA 13:10:29
Time 00:32:52 | Step 39955297 / 1000000001 | TPS 20079.2 | ETA 13:16:52
Time 00:33:02 | Step 40157107 / 1000000001 | TPS 20181 | ETA 13:12:41
Time 00:33:12 | Step 40359372 / 1000000001 | TPS 20226.4 | ETA 13:10:44
Time 00:33:22 | Step 40562125 / 1000000001 | TPS 20275.1 | ETA 13:08:40
Time 00:33:32 | Step 40766698 / 1000000001 | TPS 20457.3 | ETA 13:01:29
Time 00:33:42 | Step 40969600 / 1000000001 | TPS 20290.1 | ETA 13:07:45
Time 00:33:52 | Step 41171415 / 1000000001 | TPS 20181.3 | ETA 13:11:50
Time 00:34:02 | Step 41373047 / 1000000001 | TPS 20163.1 | ETA 13:12:23
Time 00:34:12 | Step 41576227 / 1000000001 | TPS 20317.8 | ETA 13:06:11
Time 00:34:22 | Step 41779661 / 1000000001 | TPS 20343.3 | ETA 13:05:02
Time 00:34:32 | Step 41982011 / 1000000001 | TPS 20234.9 | ETA 13:09:04
Time 00:34:42 | Step 42184175 / 1000000001 | TPS 20216.4 | ETA 13:09:38
Time 00:34:52 | Step 42387483 / 1000000001 | TPS 20330.8 | ETA 13:05:01
Time 00:35:02 | Step 42589261 / 1000000001 | TPS 20177.8 | ETA 13:10:48
Time 00:35:12 | Step 42791425 / 1000000001 | TPS 20216.4 | ETA 13:09:08
Time 00:35:22 | Step 42995219 / 1000000001 | TPS 20379.4 | ETA 13:02:39
Time 00:35:32 | Step 43198045 / 1000000001 | TPS 20282.5 | ETA 13:06:13
Time 00:35:42 | Step 43401490 / 1000000001 | TPS 20344.3 | ETA 13:03:40
Time 00:35:52 | Step 43603391 / 1000000001 | TPS 20190.1 | ETA 13:09:29
Time 00:36:02 | Step 43805733 / 1000000001 | TPS 20234.1 | ETA 13:07:36
Time 00:36:12 | Step 44007942 / 1000000001 | TPS 20220.8 | ETA 13:07:57
Time 00:36:22 | Step 44210245 / 1000000001 | TPS 20230.2 | ETA 13:07:25
Time 00:36:32 | Step 44413288 / 1000000001 | TPS 20304.3 | ETA 13:04:23
Time 00:36:42 | Step 44616093 / 1000000001 | TPS 20280.5 | ETA 13:05:08
Time 00:36:52 | Step 44818937 / 1000000001 | TPS 20284.4 | ETA 13:04:49
Time 00:37:02 | Step 45022634 / 1000000001 | TPS 20369.5 | ETA 13:01:22
Time 00:37:12 | Step 45224820 / 1000000001 | TPS 20218.5 | ETA 13:07:02
Time 00:37:22 | Step 45427130 / 1000000001 | TPS 20231 | ETA 13:06:23
Time 00:37:32 | Step 45630397 / 1000000001 | TPS 20326.6 | ETA 13:02:31
Time 00:37:42 | Step 45832553 / 1000000001 | TPS 20215.6 | ETA 13:06:39
Time 00:37:52 | Step 46034250 / 1000000001 | TPS 20169.6 | ETA 13:08:17
Time 00:38:02 | Step 46234959 / 1000000001 | TPS 20070.9 | ETA 13:11:59
Time 00:38:12 | Step 46438036 / 1000000001 | TPS 20307.5 | ETA 13:02:36
Time 00:38:22 | Step 46640407 / 1000000001 | TPS 20237.1 | ETA 13:05:09
Time 00:38:32 | Step 46843511 / 1000000001 | TPS 20310.4 | ETA 13:02:09
Time 00:38:42 | Step 47047596 / 1000000001 | TPS 20408.5 | ETA 12:58:13
Time 00:38:52 | Step 47251216 / 1000000001 | TPS 20362 | ETA 12:59:50
Time 00:39:02 | Step 47454557 / 1000000001 | TPS 20334 | ETA 13:00:44
Time 00:39:12 | Step 47658304 / 1000000001 | TPS 20374.7 | ETA 12:59:01
Time 00:39:22 | Step 47860590 / 1000000001 | TPS 20228.6 | ETA 13:04:28
Time 00:39:32 | Step 48063681 / 1000000001 | TPS 20308.9 | ETA 13:01:12
Time 00:39:42 | Step 48266508 / 1000000001 | TPS 20282.6 | ETA 13:02:03
Time 00:39:52 | Step 48470571 / 1000000001 | TPS 20406.3 | ETA 12:57:09
Time 00:40:02 | Step 48674126 / 1000000001 | TPS 20355.5 | ETA 12:58:55
Time 00:40:12 | Step 48877663 / 1000000001 | TPS 20353.7 | ETA 12:58:49
Time 00:40:22 | Step 49081701 / 1000000001 | TPS 20403.7 | ETA 12:56:45
Time 00:40:32 | Step 49284711 / 1000000001 | TPS 20301 | ETA 13:00:31
Time 00:40:42 | Step 49488050 / 1000000001 | TPS 20333.9 | ETA 12:59:05
Time 00:40:52 | Step 49689937 / 1000000001 | TPS 20188.5 | ETA 13:04:31
Time 00:41:02 | Step 49893253 / 1000000001 | TPS 20331.4 | ETA 12:58:50
Time 00:41:12 | Step 50094461 / 1000000001 | TPS 20120.6 | ETA 13:06:50
Time 00:41:22 | Step 50296278 / 1000000001 | TPS 20181.6 | ETA 13:04:17
Time 00:41:32 | Step 50501040 / 1000000001 | TPS 20476.1 | ETA 12:52:51
Time 00:41:42 | Step 50703929 / 1000000001 | TPS 20288.9 | ETA 12:59:48
Time 00:41:52 | Step 50908557 / 1000000001 | TPS 20462.8 | ETA 12:53:01
Time 00:42:02 | Step 51110437 / 1000000001 | TPS 20188 | ETA 13:03:22
Time 00:42:12 | Step 51311562 / 1000000001 | TPS 20112.5 | ETA 13:06:09
Time 00:42:22 | Step 51514477 / 1000000001 | TPS 20291.4 | ETA 12:59:03
Time 00:42:32 | Step 51714074 / 1000000001 | TPS 19959.7 | ETA 13:11:50
Time 00:42:42 | Step 51916309 / 1000000001 | TPS 20223.4 | ETA 13:01:20
Time 00:42:52 | Step 52118244 / 1000000001 | TPS 20193.4 | ETA 13:02:20
Time 00:43:02 | Step 52320519 / 1000000001 | TPS 20227.5 | ETA 13:00:51
Time 00:43:12 | Step 52523182 / 1000000001 | TPS 20266.3 | ETA 12:59:11
Time 00:43:22 | Step 52726204 / 1000000001 | TPS 20302.2 | ETA 12:57:38
Time 00:43:32 | Step 52929701 / 1000000001 | TPS 20349.7 | ETA 12:55:39
Time 00:43:42 | Step 53133767 / 1000000001 | TPS 20406.6 | ETA 12:53:20
Time 00:43:52 | Step 53335281 / 1000000001 | TPS 20151.4 | ETA 13:02:57
Time 00:44:02 | Step 53538296 / 1000000001 | TPS 20301.5 | ETA 12:57:00
Time 00:44:12 | Step 53742202 / 1000000001 | TPS 20390.6 | ETA 12:53:26
Time 00:44:22 | Step 53946356 / 1000000001 | TPS 20415.4 | ETA 12:52:20
Time 00:44:32 | Step 54149593 / 1000000001 | TPS 20323.7 | ETA 12:55:39
Time 00:44:42 | Step 54352519 / 1000000001 | TPS 20292.4 | ETA 12:56:41
Time 00:44:52 | Step 54555526 / 1000000001 | TPS 20300.7 | ETA 12:56:12
Time 00:45:02 | Step 54758354 / 1000000001 | TPS 20282.7 | ETA 12:56:43
Time 00:45:12 | Step 54961719 / 1000000001 | TPS 20336.5 | ETA 12:54:30
Time 00:45:22 | Step 55165127 / 1000000001 | TPS 20340.7 | ETA 12:54:10
Time 00:45:32 | Step 55368662 / 1000000001 | TPS 20353.4 | ETA 12:53:31
Time 00:45:42 | Step 55571871 / 1000000001 | TPS 20320.9 | ETA 12:54:35
Time 00:45:52 | Step 55774814 / 1000000001 | TPS 20294.2 | ETA 12:55:26
Time 00:46:02 | Step 55977503 / 1000000001 | TPS 20268.8 | ETA 12:56:15
Time 00:46:12 | Step 56179025 / 1000000001 | TPS 20152.2 | ETA 13:00:34
Time 00:46:22 | Step 56381797 / 1000000001 | TPS 20277.1 | ETA 12:55:36
Time 00:46:32 | Step 56584433 / 1000000001 | TPS 20263.5 | ETA 12:55:57
Time 00:46:42 | Step 56785927 / 1000000001 | TPS 20149.3 | ETA 13:00:11
Time 00:46:52 | Step 56988309 / 1000000001 | TPS 20238.1 | ETA 12:56:35
Time 00:47:02 | Step 57191449 / 1000000001 | TPS 20313.8 | ETA 12:53:32
Time 00:47:12 | Step 57394807 / 1000000001 | TPS 20335.7 | ETA 12:52:32
Time 00:47:22 | Step 57597711 / 1000000001 | TPS 20290.3 | ETA 12:54:05
Time 00:47:32 | Step 57800268 / 1000000001 | TPS 20255.7 | ETA 12:55:15
Time 00:47:42 | Step 58002473 / 1000000001 | TPS 20220.5 | ETA 12:56:26
Time 00:47:52 | Step 58206282 / 1000000001 | TPS 20380.9 | ETA 12:50:09
Time 00:48:02 | Step 58409593 / 1000000001 | TPS 20331.1 | ETA 12:51:52
Time 00:48:12 | Step 58611682 / 1000000001 | TPS 20208.8 | ETA 12:56:23
Time 00:48:22 | Step 58812706 / 1000000001 | TPS 20102.3 | ETA 13:00:19
Time 00:48:32 | Step 59015629 / 1000000001 | TPS 20292.3 | ETA 12:52:51
Time 00:48:42 | Step 59218523 / 1000000001 | TPS 20289.4 | ETA 12:52:48
Time 00:48:52 | Step 59420999 / 1000000001 | TPS 20247.6 | ETA 12:54:13
Time 00:49:02 | Step 59623261 / 1000000001 | TPS 20226.1 | ETA 12:54:53
Time 00:49:12 | Step 59824613 / 1000000001 | TPS 20135 | ETA 12:58:13
Time 00:49:22 | Step 60028693 / 1000000001 | TPS 20407.8 | ETA 12:47:39
Time 00:49:32 | Step 60232801 / 1000000001 | TPS 20410.5 | ETA 12:47:23
Time 00:49:42 | Step 60434417 / 1000000001 | TPS 20161.4 | ETA 12:56:42
Time 00:49:52 | Step 60637497 / 1000000001 | TPS 20307.8 | ETA 12:50:56
Time 00:50:02 | Step 60841587 / 1000000001 | TPS 20408.9 | ETA 12:46:57
Time 00:50:12 | Step 61044259 / 1000000001 | TPS 20267.1 | ETA 12:52:08
Time 00:50:22 | Step 61246647 / 1000000001 | TPS 20238.7 | ETA 12:53:04
Time 00:50:32 | Step 61449981 / 1000000001 | TPS 20333.4 | ETA 12:49:18
Time 00:50:42 | Step 61652811 / 1000000001 | TPS 20283 | ETA 12:51:02
Time 00:50:52 | Step 61854755 / 1000000001 | TPS 20194.2 | ETA 12:54:16
Time 00:51:02 | Step 62058128 / 1000000001 | TPS 20337.3 | ETA 12:48:39
Time 00:51:12 | Step 62259493 / 1000000001 | TPS 20136.4 | ETA 12:56:09
Time 00:51:22 | Step 62462409 / 1000000001 | TPS 20291.6 | ETA 12:50:03
Time 00:51:32 | Step 62665126 / 1000000001 | TPS 20271.5 | ETA 12:50:38
Time 00:51:42 | Step 62867772 / 1000000001 | TPS 20264.5 | ETA 12:50:44
Time 00:51:52 | Step 63069727 / 1000000001 | TPS 20195.5 | ETA 12:53:13
Time 00:52:02 | Step 63272142 / 1000000001 | TPS 20241.5 | ETA 12:51:17
Time 00:52:12 | Step 63474234 / 1000000001 | TPS 20209.2 | ETA 12:52:21
Time 00:52:22 | Step 63676298 / 1000000001 | TPS 20206.3 | ETA 12:52:18
Time 00:52:32 | Step 63879789 / 1000000001 | TPS 20349 | ETA 12:46:43
Time 00:52:42 | Step 64082696 / 1000000001 | TPS 20290.7 | ETA 12:48:45
Time 00:52:52 | Step 64285736 / 1000000001 | TPS 20303.9 | ETA 12:48:05
Time 00:53:02 | Step 64488058 / 1000000001 | TPS 20232.2 | ETA 12:50:38
Time 00:53:12 | Step 64691491 / 1000000001 | TPS 20343.2 | ETA 12:46:16
Time 00:53:22 | Step 64895149 / 1000000001 | TPS 20365.6 | ETA 12:45:15
Time 00:53:32 | Step 65098541 / 1000000001 | TPS 20339.1 | ETA 12:46:05
Time 00:53:42 | Step 65301323 / 1000000001 | TPS 20278.2 | ETA 12:48:13
Time 00:53:52 | Step 65503162 / 1000000001 | TPS 20183.7 | ETA 12:51:39
Time 00:54:02 | Step 65705589 / 1000000001 | TPS 20242.6 | ETA 12:49:14
Time 00:54:12 | Step 65908336 / 1000000001 | TPS 20274.6 | ETA 12:47:51
Time 00:54:22 | Step 66110701 / 1000000001 | TPS 20236.1 | ETA 12:49:09
Time 00:54:32 | Step 66313699 / 1000000001 | TPS 20299.7 | ETA 12:46:34
Time 00:54:42 | Step 66516667 / 1000000001 | TPS 20296.8 | ETA 12:46:31
Time 00:54:52 | Step 66718658 / 1000000001 | TPS 20199 | ETA 12:50:04
Time 00:55:02 | Step 66919513 / 1000000001 | TPS 20085.5 | ETA 12:54:15
Time 00:55:12 | Step 67122097 / 1000000001 | TPS 20258.2 | ETA 12:47:29
Time 00:55:22 | Step 67326501 / 1000000001 | TPS 20440.2 | ETA 12:40:29
Time 00:55:32 | Step 67529022 / 1000000001 | TPS 20252 | ETA 12:47:23
Time 00:55:42 | Step 67731269 / 1000000001 | TPS 20224.7 | ETA 12:48:15
Time 00:55:52 | Step 67933214 / 1000000001 | TPS 20194.5 | ETA 12:49:14
Time 00:56:02 | Step 68135187 / 1000000001 | TPS 20197.3 | ETA 12:48:58
Time 00:56:12 | Step 68336485 / 1000000001 | TPS 20129.7 | ETA 12:51:22
Time 00:56:22 | Step 68538399 / 1000000001 | TPS 20191.4 | ETA 12:48:51
Time 00:56:32 | Step 68741465 / 1000000001 | TPS 20306.6 | ETA 12:44:20
Time 00:56:42 | Step 68943446 / 1000000001 | TPS 20198 | ETA 12:48:16
Time 00:56:52 | Step 69145584 / 1000000001 | TPS 20213.8 | ETA 12:47:30
Time 00:57:02 | Step 69349170 / 1000000001 | TPS 20358.6 | ETA 12:41:53
Time 00:57:12 | Step 69550489 / 1000000001 | TPS 20131.7 | ETA 12:50:18
Time 00:57:22 | Step 69755440 / 1000000001 | TPS 20495.1 | ETA 12:36:28
Time 00:57:32 | Step 69958738 / 1000000001 | TPS 20329.8 | ETA 12:42:27
Time 00:57:42 | Step 70160994 / 1000000001 | TPS 20225.6 | ETA 12:46:13
Time 00:57:52 | Step 70363728 / 1000000001 | TPS 20273.3 | ETA 12:44:15
Time 00:58:02 | Step 70565957 / 1000000001 | TPS 20222.7 | ETA 12:45:59
Time 00:58:12 | Step 70768717 / 1000000001 | TPS 20275.8 | ETA 12:43:49
Time 00:58:22 | Step 70971431 / 1000000001 | TPS 20271.3 | ETA 12:43:49
Time 00:58:32 | Step 71174101 / 1000000001 | TPS 20266.7 | ETA 12:43:50
Time 00:58:42 | Step 71376897 / 1000000001 | TPS 20279.5 | ETA 12:43:11
Time 00:58:52 | Step 71579584 / 1000000001 | TPS 20268.7 | ETA 12:43:25
Time 00:59:02 | Step 71782068 / 1000000001 | TPS 20248.3 | ETA 12:44:01
Time 00:59:12 | Step 71983540 / 1000000001 | TPS 20147.2 | ETA 12:47:41
Time 00:59:22 | Step 72184632 / 1000000001 | TPS 20109.2 | ETA 12:48:58
Time 00:59:32 | Step 72387212 / 1000000001 | TPS 20257.9 | ETA 12:43:10
Time 00:59:42 | Step 72589518 / 1000000001 | TPS 20230.5 | ETA 12:44:02
Time 00:59:52 | Step 72792145 / 1000000001 | TPS 20262.5 | ETA 12:42:39
Time 01:00:02 | Step 72994555 / 1000000001 | TPS 20241 | ETA 12:43:18
Time 01:00:12 | Step 73196732 / 1000000001 | TPS 20217.7 | ETA 12:44:01
Time 01:00:22 | Step 73399509 / 1000000001 | TPS 20277.5 | ETA 12:41:35
Time 01:00:32 | Step 73602490 / 1000000001 | TPS 20298 | ETA 12:40:39
Time 01:00:42 | Step 73805709 / 1000000001 | TPS 20321.9 | ETA 12:39:36
Time 01:00:52 | Step 74009163 / 1000000001 | TPS 20345.4 | ETA 12:38:33
Time 01:01:02 | Step 74212338 / 1000000001 | TPS 20317.4 | ETA 12:39:26
Time 01:01:12 | Step 74414446 / 1000000001 | TPS 20210.7 | ETA 12:43:16
Time 01:01:22 | Step 74618549 / 1000000001 | TPS 20410.3 | ETA 12:35:39
Time 01:01:32 | Step 74820877 / 1000000001 | TPS 20232.8 | ETA 12:42:06
Time 01:01:42 | Step 75023123 / 1000000001 | TPS 20224.6 | ETA 12:42:15
Time 01:01:52 | Step 75226476 / 1000000001 | TPS 20335.2 | ETA 12:37:56
Time 01:02:02 | Step 75428938 / 1000000001 | TPS 20246.2 | ETA 12:41:06
Time 01:02:12 | Step 75632013 / 1000000001 | TPS 20307.5 | ETA 12:38:38
Time 01:02:22 | Step 75834689 / 1000000001 | TPS 20267.6 | ETA 12:39:58
Time 01:02:32 | Step 76036932 / 1000000001 | TPS 20224.3 | ETA 12:41:25
Time 01:02:42 | Step 76239632 / 1000000001 | TPS 20269.9 | ETA 12:39:32
Time 01:02:52 | Step 76442692 / 1000000001 | TPS 20305.9 | ETA 12:38:02
Time 01:03:02 | Step 76646512 / 1000000001 | TPS 20382 | ETA 12:35:02
Time 01:03:12 | Step 76850473 / 1000000001 | TPS 20395.9 | ETA 12:34:21
Time 01:03:22 | Step 77053207 / 1000000001 | TPS 20273.4 | ETA 12:38:45
Time 01:03:32 | Step 77256635 / 1000000001 | TPS 20342.8 | ETA 12:35:59
Time 01:03:42 | Step 77459729 / 1000000001 | TPS 20309.4 | ETA 12:37:04
Time 01:03:52 | Step 77663282 / 1000000001 | TPS 20355.3 | ETA 12:35:11
Time 01:04:02 | Step 77866625 / 1000000001 | TPS 20334.3 | ETA 12:35:48
Time 01:04:12 | Step 78069847 / 1000000001 | TPS 20322.2 | ETA 12:36:05
Time 01:04:22 | Step 78271963 / 1000000001 | TPS 20211.4 | ETA 12:40:04
Time 01:04:32 | Step 78475087 / 1000000001 | TPS 20312.3 | ETA 12:36:07
Time 01:04:42 | Step 78677762 / 1000000001 | TPS 20267.5 | ETA 12:37:38
Time 01:04:52 | Step 78880469 / 1000000001 | TPS 20270.7 | ETA 12:37:21
Time 01:05:02 | Step 79083370 / 1000000001 | TPS 20290.1 | ETA 12:36:27
Time 01:05:12 | Step 79285432 / 1000000001 | TPS 20206.2 | ETA 12:39:25
Time 01:05:22 | Step 79488200 / 1000000001 | TPS 20276.7 | ETA 12:36:37
Time 01:05:32 | Step 79690534 / 1000000001 | TPS 20233.4 | ETA 12:38:04
Time 01:05:42 | Step 79893691 / 1000000001 | TPS 20315.6 | ETA 12:34:50
Time 01:05:52 | Step 80096165 / 1000000001 | TPS 20247.3 | ETA 12:37:13
Time 01:06:02 | Step 80299005 / 1000000001 | TPS 20283.8 | ETA 12:35:41
Time 01:06:12 | Step 80502597 / 1000000001 | TPS 20359.1 | ETA 12:32:43
Time 01:06:22 | Step 80705925 / 1000000001 | TPS 20332.7 | ETA 12:33:32
Time 01:06:32 | Step 80908891 / 1000000001 | TPS 20296.6 | ETA 12:34:43
Time 01:06:42 | Step 81110973 / 1000000001 | TPS 20208.1 | ETA 12:37:51
Time 01:06:52 | Step 81313388 / 1000000001 | TPS 20241.4 | ETA 12:36:26
Time 01:07:02 | Step 81516237 / 1000000001 | TPS 20284.8 | ETA 12:34:39
Time 01:07:12 | Step 81719486 / 1000000001 | TPS 20324.9 | ETA 12:33:00
Time 01:07:22 | Step 81921789 / 1000000001 | TPS 20230.2 | ETA 12:36:21
Time 01:07:32 | Step 82123039 / 1000000001 | TPS 20125 | ETA 12:40:08
Time 01:07:42 | Step 82325999 / 1000000001 | TPS 20296 | ETA 12:33:34
Time 01:07:52 | Step 82528961 / 1000000001 | TPS 20296.1 | ETA 12:33:24
Time 01:08:02 | Step 82731922 / 1000000001 | TPS 20296.1 | ETA 12:33:14
Time 01:08:12 | Step 82932777 / 1000000001 | TPS 20085.3 | ETA 12:40:58
Time 01:08:22 | Step 83135343 / 1000000001 | TPS 20256.5 | ETA 12:34:22
Time 01:08:32 | Step 83338067 / 1000000001 | TPS 20272.4 | ETA 12:33:37
Time 01:08:42 | Step 83539801 / 1000000001 | TPS 20173.1 | ETA 12:37:09
Time 01:08:52 | Step 83742278 / 1000000001 | TPS 20247.7 | ETA 12:34:12
Time 01:09:02 | Step 83946587 / 1000000001 | TPS 20430.9 | ETA 12:27:16
Time 01:09:12 | Step 84151381 / 1000000001 | TPS 20479.4 | ETA 12:25:20
Time 01:09:22 | Step 84353801 / 1000000001 | TPS 20242 | ETA 12:33:55
Time 01:09:32 | Step 84555762 / 1000000001 | TPS 20196.1 | ETA 12:35:27
Time 01:09:42 | Step 84758652 / 1000000001 | TPS 20289 | ETA 12:31:50
Time 01:09:52 | Step 84962123 / 1000000001 | TPS 20347.1 | ETA 12:29:31
Time 01:10:02 | Step 85164929 / 1000000001 | TPS 20280.5 | ETA 12:31:49
Time 01:10:12 | Step 85367963 / 1000000001 | TPS 20303.4 | ETA 12:30:48
Time 01:10:22 | Step 85571523 / 1000000001 | TPS 20356 | ETA 12:28:41
Time 01:10:32 | Step 85774342 / 1000000001 | TPS 20281.9 | ETA 12:31:16
Time 01:10:42 | Step 85977965 / 1000000001 | TPS 20362.3 | ETA 12:28:08
Time 01:10:52 | Step 86181574 / 1000000001 | TPS 20360.9 | ETA 12:28:01
Time 01:11:02 | Step 86383289 / 1000000001 | TPS 20171.4 | ETA 12:34:52
Time 01:11:12 | Step 86585836 / 1000000001 | TPS 20254.7 | ETA 12:31:36
Time 01:11:22 | Step 86788416 / 1000000001 | TPS 20257.9 | ETA 12:31:19
Time 01:11:32 | Step 86992358 / 1000000001 | TPS 20394.1 | ETA 12:26:08
Time 01:11:42 | Step 87195699 / 1000000001 | TPS 20334.1 | ETA 12:28:10
Time 01:11:52 | Step 87399355 / 1000000001 | TPS 20365.6 | ETA 12:26:50
Time 01:12:02 | Step 87602879 / 1000000001 | TPS 20352.3 | ETA 12:27:10
Time 01:12:12 | Step 87807402 / 1000000001 | TPS 20452.3 | ETA 12:23:21
Time 01:12:22 | Step 88011525 / 1000000001 | TPS 20412.2 | ETA 12:24:38
Time 01:12:32 | Step 88215046 / 1000000001 | TPS 20352.1 | ETA 12:26:40
Time 01:12:42 | Step 88418933 / 1000000001 | TPS 20388.5 | ETA 12:25:10
Time 01:12:52 | Step 88621372 / 1000000001 | TPS 20243.8 | ETA 12:30:20
Time 01:13:02 | Step 88822809 / 1000000001 | TPS 20143.6 | ETA 12:33:54
Time 01:13:12 | Step 89023826 / 1000000001 | TPS 20101.7 | ETA 12:35:18
Time 01:13:22 | Step 89226913 / 1000000001 | TPS 20308.7 | ETA 12:27:26
Time 01:13:32 | Step 89429227 / 1000000001 | TPS 20231.4 | ETA 12:30:07
Time 01:13:42 | Step 89633585 / 1000000001 | TPS 20435.7 | ETA 12:22:27
Time 01:13:52 | Step 89836322 / 1000000001 | TPS 20273.7 | ETA 12:28:13
Time 01:14:02 | Step 90039188 / 1000000001 | TPS 20286.6 | ETA 12:27:35
Time 01:14:12 | Step 90241393 / 1000000001 | TPS 20220.5 | ETA 12:29:52
Time 01:14:22 | Step 90444217 / 1000000001 | TPS 20282.4 | ETA 12:27:24
Time 01:14:32 | Step 90647234 / 1000000001 | TPS 20301.7 | ETA 12:26:31
Time 01:14:42 | Step 90850292 / 1000000001 | TPS 20305.7 | ETA 12:26:13
Time 01:14:52 | Step 91053376 / 1000000001 | TPS 20308.4 | ETA 12:25:57
Time 01:15:02 | Step 91256292 / 1000000001 | TPS 20291.5 | ETA 12:26:24
Time 01:15:12 | Step 91458358 / 1000000001 | TPS 20206.5 | ETA 12:29:22
Time 01:15:22 | Step 91660215 / 1000000001 | TPS 20185.7 | ETA 12:29:59
Time 01:15:32 | Step 91863004 / 1000000001 | TPS 20278.9 | ETA 12:26:22
Time 01:15:42 | Step 92066272 / 1000000001 | TPS 20326.7 | ETA 12:24:27
Time 01:15:52 | Step 92269723 / 1000000001 | TPS 20345.1 | ETA 12:23:36
Time 01:16:02 | Step 92473623 / 1000000001 | TPS 20390 | ETA 12:21:48
Time 01:16:12 | Step 92676630 / 1000000001 | TPS 20300.6 | ETA 12:24:54
Time 01:16:22 | Step 92880177 / 1000000001 | TPS 20354.6 | ETA 12:22:45
Time 01:16:32 | Step 93082999 / 1000000001 | TPS 20282.1 | ETA 12:25:15
Time 01:16:42 | Step 93286418 / 1000000001 | TPS 20341.9 | ETA 12:22:53
Time 01:16:52 | Step 93488782 / 1000000001 | TPS 20236.3 | ETA 12:26:36
Time 01:17:02 | Step 93691172 / 1000000001 | TPS 20239 | ETA 12:26:20
Time 01:17:12 | Step 93894933 / 1000000001 | TPS 20375.9 | ETA 12:21:09
Time 01:17:22 | Step 94098496 / 1000000001 | TPS 20356.2 | ETA 12:21:42
Time 01:17:32 | Step 94302445 / 1000000001 | TPS 20394.8 | ETA 12:20:08
Time 01:17:42 | Step 94505893 / 1000000001 | TPS 20344.7 | ETA 12:21:47
Time 01:17:52 | Step 94709017 / 1000000001 | TPS 20312.3 | ETA 12:22:48
Time 01:18:02 | Step 94912489 / 1000000001 | TPS 20347.1 | ETA 12:21:22
Time 01:18:12 | Step 95114585 / 1000000001 | TPS 20209.5 | ETA 12:26:15
Time 01:18:22 | Step 95317304 / 1000000001 | TPS 20271.8 | ETA 12:23:47
Time 01:18:32 | Step 95520479 / 1000000001 | TPS 20317.5 | ETA 12:21:57
Time 01:18:42 | Step 95723410 / 1000000001 | TPS 20293 | ETA 12:22:40
Time 01:18:52 | Step 95926157 / 1000000001 | TPS 20274.7 | ETA 12:23:11
Time 01:19:02 | Step 96128613 / 1000000001 | TPS 20245.6 | ETA 12:24:05
Time 01:19:12 | Step 96331701 / 1000000001 | TPS 20308.8 | ETA 12:21:36
Time 01:19:22 | Step 96534541 / 1000000001 | TPS 20283.8 | ETA 12:22:21
Time 01:19:32 | Step 96738053 / 1000000001 | TPS 20351.2 | ETA 12:19:43
Time 01:19:42 | Step 96941486 / 1000000001 | TPS 20343.2 | ETA 12:19:51
Time 01:19:52 | Step 97143956 / 1000000001 | TPS 20247 | ETA 12:23:12
Time 01:20:02 | Step 97346794 / 1000000001 | TPS 20283.7 | ETA 12:21:41
Time 01:20:12 | Step 97549553 / 1000000001 | TPS 20275.9 | ETA 12:21:48
Time 01:20:22 | Step 97752700 / 1000000001 | TPS 20314.7 | ETA 12:20:13
Time 01:20:32 | Step 97954959 / 1000000001 | TPS 20225.9 | ETA 12:23:18
Time 01:20:42 | Step 98158125 / 1000000001 | TPS 20316.5 | ETA 12:19:49
Time 01:20:52 | Step 98360283 / 1000000001 | TPS 20215.7 | ETA 12:23:20
Time 01:21:02 | Step 98562017 / 1000000001 | TPS 20173.3 | ETA 12:24:44
Time 01:21:12 | Step 98765681 / 1000000001 | TPS 20366.3 | ETA 12:17:31
Time 01:21:22 | Step 98969421 / 1000000001 | TPS 20374 | ETA 12:17:04
Time 01:21:32 | Step 99173357 / 1000000001 | TPS 20393.6 | ETA 12:16:12
Time 01:21:42 | Step 99376480 / 1000000001 | TPS 20312.3 | ETA 12:18:58
Time 01:21:52 | Step 99578885 / 1000000001 | TPS 20240.4 | ETA 12:21:26
Time 01:22:02 | Step 99781891 / 1000000001 | TPS 20300.5 | ETA 12:19:04
Time 01:22:12 | Step 99985501 / 1000000001 | TPS 20360.6 | ETA 12:16:43
Time 01:22:22 | Step 100188420 / 1000000001 | TPS 20291.8 | ETA 12:19:03
Time 01:22:32 | Step 100391591 / 1000000001 | TPS 20317.1 | ETA 12:17:58
Time 01:22:42 | Step 100593498 / 1000000001 | TPS 20190.7 | ETA 12:22:25
Time 01:22:52 | Step 100797707 / 1000000001 | TPS 20420.9 | ETA 12:13:53
Time 01:23:02 | Step 101001448 / 1000000001 | TPS 20373.9 | ETA 12:15:24
Time 01:23:12 | Step 101204717 / 1000000001 | TPS 20326.8 | ETA 12:16:57
Time 01:23:22 | Step 101407128 / 1000000001 | TPS 20241.1 | ETA 12:19:54
Time 01:23:32 | Step 101610367 / 1000000001 | TPS 20323.9 | ETA 12:16:43
Time 01:23:42 | Step 101811256 / 1000000001 | TPS 20088.9 | ETA 12:25:10
Time 01:23:52 | Step 102015175 / 1000000001 | TPS 20391.8 | ETA 12:13:56
Time 01:24:02 | Step 102218470 / 1000000001 | TPS 20329.4 | ETA 12:16:01
Time 01:24:12 | Step 102421865 / 1000000001 | TPS 20339.4 | ETA 12:15:30
Time 01:24:22 | Step 102624224 / 1000000001 | TPS 20235.8 | ETA 12:19:05
Time 01:24:32 | Step 102827796 / 1000000001 | TPS 20357.2 | ETA 12:14:31
Time 01:24:42 | Step 103030013 / 1000000001 | TPS 20221.5 | ETA 12:19:17
Time 01:24:52 | Step 103232474 / 1000000001 | TPS 20246 | ETA 12:18:13
Time 01:25:02 | Step 103435412 / 1000000001 | TPS 20293.8 | ETA 12:16:19
Time 01:25:12 | Step 103638601 / 1000000001 | TPS 20318.8 | ETA 12:15:14
Time 01:25:22 | Step 103840761 / 1000000001 | TPS 20216 | ETA 12:18:49
Time 01:25:32 | Step 104042419 / 1000000001 | TPS 20165.8 | ETA 12:20:29
Time 01:25:42 | Step 104245711 / 1000000001 | TPS 20329.2 | ETA 12:14:22
Time 01:25:52 | Step 104449291 / 1000000001 | TPS 20358 | ETA 12:13:10
Time 01:26:02 | Step 104652288 / 1000000001 | TPS 20299.6 | ETA 12:15:06
Time 01:26:12 | Step 104855419 / 1000000001 | TPS 20313.1 | ETA 12:14:27
Time 01:26:22 | Step 105057692 / 1000000001 | TPS 20227.3 | ETA 12:17:24
Time 01:26:32 | Step 105260697 / 1000000001 | TPS 20300.4 | ETA 12:14:34
Time 01:26:42 | Step 105464506 / 1000000001 | TPS 20380.8 | ETA 12:11:31
Time 01:26:52 | Step 105667849 / 1000000001 | TPS 20334.3 | ETA 12:13:01
Time 01:27:02 | Step 105871340 / 1000000001 | TPS 20349.1 | ETA 12:12:19
Time 01:27:12 | Step 106074385 / 1000000001 | TPS 20304.5 | ETA 12:13:46
Time 01:27:22 | Step 106276711 / 1000000001 | TPS 20232.4 | ETA 12:16:12
Time 01:27:32 | Step 106480261 / 1000000001 | TPS 20354.9 | ETA 12:11:36
Time 01:27:42 | Step 106684250 / 1000000001 | TPS 20398.8 | ETA 12:09:52
Time 01:27:52 | Step 106887126 / 1000000001 | TPS 20287.5 | ETA 12:13:42
Time 01:28:02 | Step 107089371 / 1000000001 | TPS 20224.5 | ETA 12:15:50
Time 01:28:12 | Step 107292801 / 1000000001 | TPS 20343 | ETA 12:11:22
Time 01:28:22 | Step 107495835 / 1000000001 | TPS 20303.4 | ETA 12:12:38
Time 01:28:32 | Step 107697863 / 1000000001 | TPS 20202.7 | ETA 12:16:07
Time 01:28:42 | Step 107900877 / 1000000001 | TPS 20301.3 | ETA 12:12:23
Time 01:28:52 | Step 108103603 / 1000000001 | TPS 20272.5 | ETA 12:13:15
Time 01:29:02 | Step 108306562 / 1000000001 | TPS 20295.9 | ETA 12:12:14
Time 01:29:12 | Step 108509691 / 1000000001 | TPS 20312.9 | ETA 12:11:27
Time 01:29:22 | Step 108712311 / 1000000001 | TPS 20262 | ETA 12:13:08
Time 01:29:32 | Step 108918276 / 1000000001 | TPS 20596.5 | ETA 12:01:03
Time 01:29:42 | Step 109120859 / 1000000001 | TPS 20258.3 | ETA 12:12:56
Time 01:29:52 | Step 109324969 / 1000000001 | TPS 20411 | ETA 12:07:17
Time 01:30:02 | Step 109528253 / 1000000001 | TPS 20328.4 | ETA 12:10:04
Time 01:30:12 | Step 109731778 / 1000000001 | TPS 20352.4 | ETA 12:09:02
Time 01:30:22 | Step 109933487 / 1000000001 | TPS 20170.8 | ETA 12:15:26
Time 01:30:32 | Step 110136057 / 1000000001 | TPS 20256.9 | ETA 12:12:08
Time 01:30:42 | Step 110338365 / 1000000001 | TPS 20230.8 | ETA 12:12:55
Time 01:30:52 | Step 110541997 / 1000000001 | TPS 20363 | ETA 12:08:00
Time 01:31:02 | Step 110745646 / 1000000001 | TPS 20364.7 | ETA 12:07:46
Time 01:31:12 | Step 110950283 / 1000000001 | TPS 20463.6 | ETA 12:04:05
Time 01:31:22 | Step 111152304 / 1000000001 | TPS 20202 | ETA 12:13:17
Time 01:31:32 | Step 111354942 / 1000000001 | TPS 20263.8 | ETA 12:10:53
Time 01:31:42 | Step 111555714 / 1000000001 | TPS 20077.2 | ETA 12:17:31
Time 01:31:52 | Step 111757823 / 1000000001 | TPS 20210.8 | ETA 12:12:28
Time 01:32:02 | Step 111960377 / 1000000001 | TPS 20255.3 | ETA 12:10:42
Time 01:32:12 | Step 112163076 / 1000000001 | TPS 20269.9 | ETA 12:10:00
Time 01:32:22 | Step 112365730 / 1000000001 | TPS 20265.4 | ETA 12:10:00
Time 01:32:32 | Step 112568409 / 1000000001 | TPS 20267.9 | ETA 12:09:45
Time 01:32:42 | Step 112770352 / 1000000001 | TPS 20194.3 | ETA 12:12:14
Time 01:32:52 | Step 112974412 / 1000000001 | TPS 20406 | ETA 12:04:28
Time 01:33:02 | Step 113177182 / 1000000001 | TPS 20276.9 | ETA 12:08:55
Time 01:33:12 | Step 113380181 / 1000000001 | TPS 20299.7 | ETA 12:07:56
Time 01:33:22 | Step 113583563 / 1000000001 | TPS 20338.2 | ETA 12:06:23
Time 01:33:32 | Step 113789295 / 1000000001 | TPS 20573.2 | ETA 11:57:56
Time 01:33:42 | Step 113993951 / 1000000001 | TPS 20465.5 | ETA 12:01:32
Time 01:33:52 | Step 114197101 / 1000000001 | TPS 20314.6 | ETA 12:06:44
Time 01:34:02 | Step 114401415 / 1000000001 | TPS 20431.4 | ETA 12:02:25
Time 01:34:12 | Step 114604963 / 1000000001 | TPS 20354.7 | ETA 12:04:58
Time 01:34:22 | Step 114808621 / 1000000001 | TPS 20365.8 | ETA 12:04:24
Time 01:34:32 | Step 115011568 / 1000000001 | TPS 20294.7 | ETA 12:06:46
Time 01:34:42 | Step 115214556 / 1000000001 | TPS 20298.8 | ETA 12:06:28
Time 01:34:52 | Step 115417219 / 1000000001 | TPS 20266.3 | ETA 12:07:27
Time 01:35:02 | Step 115619202 / 1000000001 | TPS 20198.2 | ETA 12:09:45
Time 01:35:12 | Step 115822072 / 1000000001 | TPS 20287 | ETA 12:06:23
Time 01:35:22 | Step 116022989 / 1000000001 | TPS 20091.7 | ETA 12:13:17
Time 01:35:32 | Step 116225213 / 1000000001 | TPS 20222.4 | ETA 12:08:22
Time 01:35:42 | Step 116427502 / 1000000001 | TPS 20228.9 | ETA 12:07:58
Time 01:35:52 | Step 116631198 / 1000000001 | TPS 20369.6 | ETA 12:02:47
Time 01:36:02 | Step 116833447 / 1000000001 | TPS 20224.9 | ETA 12:07:47
Time 01:36:12 | Step 117036689 / 1000000001 | TPS 20324.1 | ETA 12:04:04
Time 01:36:22 | Step 117240019 / 1000000001 | TPS 20332.9 | ETA 12:03:35
Time 01:36:32 | Step 117442424 / 1000000001 | TPS 20240.4 | ETA 12:06:43
Time 01:36:42 | Step 117644535 / 1000000001 | TPS 20211.1 | ETA 12:07:37
Time 01:36:52 | Step 117846128 / 1000000001 | TPS 20159.3 | ETA 12:09:19
Time 01:37:02 | Step 118047670 / 1000000001 | TPS 20154.1 | ETA 12:09:20
Time 01:37:12 | Step 118250428 / 1000000001 | TPS 20275.8 | ETA 12:04:47
Time 01:37:22 | Step 118453100 / 1000000001 | TPS 20267.2 | ETA 12:04:56
Time 01:37:32 | Step 118654585 / 1000000001 | TPS 20148.5 | ETA 12:09:02
Time 01:37:42 | Step 118858231 / 1000000001 | TPS 20364.5 | ETA 12:01:08
Time 01:37:52 | Step 119060811 / 1000000001 | TPS 20258 | ETA 12:04:46
Time 01:38:02 | Step 119264132 / 1000000001 | TPS 20332 | ETA 12:01:57
Time 01:38:12 | Step 119466742 / 1000000001 | TPS 20261 | ETA 12:04:19
Time 01:38:22 | Step 119669592 / 1000000001 | TPS 20285 | ETA 12:03:18
Time 01:38:32 | Step 119873484 / 1000000001 | TPS 20389.2 | ETA 11:59:26
Time 01:38:42 | Step 120075529 / 1000000001 | TPS 20204.5 | ETA 12:05:50
Time 01:38:52 | Step 120278847 / 1000000001 | TPS 20331.8 | ETA 12:01:08
Time 01:39:02 | Step 120482441 / 1000000001 | TPS 20359.4 | ETA 11:59:59
Time 01:39:12 | Step 120684290 / 1000000001 | TPS 20184.8 | ETA 12:06:03
Time 01:39:22 | Step 120886810 / 1000000001 | TPS 20251.9 | ETA 12:03:28
Time 01:39:32 | Step 121087619 / 1000000001 | TPS 20080.9 | ETA 12:09:28
Time 01:39:42 | Step 121288921 / 1000000001 | TPS 20130.1 | ETA 12:07:31
Time 01:39:52 | Step 121490980 / 1000000001 | TPS 20205.8 | ETA 12:04:38
Time 01:40:02 | Step 121692057 / 1000000001 | TPS 20107.6 | ETA 12:08:00
Time 01:40:12 | Step 121894061 / 1000000001 | TPS 20200.4 | ETA 12:04:29
Time 01:40:22 | Step 122096382 / 1000000001 | TPS 20232.1 | ETA 12:03:11
Time 01:40:32 | Step 122299008 / 1000000001 | TPS 20262.5 | ETA 12:01:56
Time 01:40:42 | Step 122501210 / 1000000001 | TPS 20220.1 | ETA 12:03:17
Time 01:40:52 | Step 122704049 / 1000000001 | TPS 20283.8 | ETA 12:00:50
Time 01:41:02 | Step 122906902 / 1000000001 | TPS 20285.1 | ETA 12:00:38
Time 01:41:12 | Step 123109532 / 1000000001 | TPS 20263 | ETA 12:01:15
Time 01:41:22 | Step 123313578 / 1000000001 | TPS 20404.5 | ETA 11:56:05
Time 01:41:32 | Step 123515132 / 1000000001 | TPS 20155.4 | ETA 12:04:46
Time 01:41:42 | Step 123716008 / 1000000001 | TPS 20087.6 | ETA 12:07:03
Time 01:41:52 | Step 123919342 / 1000000001 | TPS 20333.4 | ETA 11:58:05
Time 01:42:02 | Step 124122413 / 1000000001 | TPS 20307 | ETA 11:58:51
Time 01:42:12 | Step 124324977 / 1000000001 | TPS 20256.3 | ETA 12:00:29
Time 01:42:22 | Step 124528840 / 1000000001 | TPS 20386.2 | ETA 11:55:44
Time 01:42:32 | Step 124731651 / 1000000001 | TPS 20281.1 | ETA 11:59:16
Time 01:42:42 | Step 124934707 / 1000000001 | TPS 20305.6 | ETA 11:58:14
Time 01:42:52 | Step 125138766 / 1000000001 | TPS 20405.9 | ETA 11:54:32
Time 01:43:02 | Step 125341126 / 1000000001 | TPS 20235.9 | ETA 12:00:23
Time 01:43:12 | Step 125544082 / 1000000001 | TPS 20295.6 | ETA 11:58:06
Time 01:43:22 | Step 125745841 / 1000000001 | TPS 20175.9 | ETA 12:02:11
Time 01:43:32 | Step 125949337 / 1000000001 | TPS 20349.5 | ETA 11:55:51
Time 01:43:42 | Step 126151887 / 1000000001 | TPS 20254.9 | ETA 11:59:02
Time 01:43:52 | Step 126353754 / 1000000001 | TPS 20186.6 | ETA 12:01:18
Time 01:44:02 | Step 126556354 / 1000000001 | TPS 20260 | ETA 11:58:31
Time 01:44:12 | Step 126759394 / 1000000001 | TPS 20303.9 | ETA 11:56:48
Time 01:44:22 | Step 126961549 / 1000000001 | TPS 20215.4 | ETA 11:59:46
Time 01:44:32 | Step 127164199 / 1000000001 | TPS 20264.8 | ETA 11:57:51
Time 01:44:42 | Step 127367771 / 1000000001 | TPS 20357.1 | ETA 11:54:26
Time 01:44:52 | Step 127570493 / 1000000001 | TPS 20272.1 | ETA 11:57:15
Time 01:45:02 | Step 127770872 / 1000000001 | TPS 20037.9 | ETA 12:05:29
Time 01:45:12 | Step 127971826 / 1000000001 | TPS 20095.4 | ETA 12:03:14
Time 01:45:22 | Step 128174308 / 1000000001 | TPS 20248.2 | ETA 11:57:37
Time 01:45:32 | Step 128378098 / 1000000001 | TPS 20378.9 | ETA 11:52:50
Time 01:45:42 | Step 128580452 / 1000000001 | TPS 20235.4 | ETA 11:57:44
Time 01:45:52 | Step 128783057 / 1000000001 | TPS 20260.4 | ETA 11:56:40
Time 01:46:02 | Step 128985428 / 1000000001 | TPS 20237.1 | ETA 11:57:20
Time 01:46:12 | Step 129188320 / 1000000001 | TPS 20289.1 | ETA 11:55:20
Time 01:46:22 | Step 129390897 / 1000000001 | TPS 20257.7 | ETA 11:56:16
Time 01:46:32 | Step 129594256 / 1000000001 | TPS 20335.9 | ETA 11:53:21
Time 01:46:42 | Step 129795835 / 1000000001 | TPS 20157.9 | ETA 11:59:29
Time 01:46:52 | Step 129997476 / 1000000001 | TPS 20164 | ETA 11:59:06
Time 01:47:02 | Step 130198724 / 1000000001 | TPS 20124.8 | ETA 12:00:20
Time 01:47:12 | Step 130400148 / 1000000001 | TPS 20142.4 | ETA 11:59:32
Time 01:47:22 | Step 130603337 / 1000000001 | TPS 20318.7 | ETA 11:53:07
Time 01:47:32 | Step 130806176 / 1000000001 | TPS 20283.8 | ETA 11:54:11
Time 01:47:42 | Step 131008658 / 1000000001 | TPS 20248.2 | ETA 11:55:17
Time 01:47:52 | Step 131210254 / 1000000001 | TPS 20159.6 | ETA 11:58:15
Time 01:48:02 | Step 131412742 / 1000000001 | TPS 20248.6 | ETA 11:54:56
Time 01:48:12 | Step 131616261 / 1000000001 | TPS 20351.9 | ETA 11:51:08
Time 01:48:22 | Step 131818058 / 1000000001 | TPS 20179.6 | ETA 11:57:02
Time 01:48:32 | Step 132017862 / 1000000001 | TPS 19980.2 | ETA 12:04:02
Time 01:48:42 | Step 132220941 / 1000000001 | TPS 20307.8 | ETA 11:52:11
Time 01:48:52 | Step 132423280 / 1000000001 | TPS 20233.9 | ETA 11:54:37
Time 01:49:02 | Step 132623782 / 1000000001 | TPS 20050.2 | ETA 12:01:00
Time 01:49:12 | Step 132825134 / 1000000001 | TPS 20135.1 | ETA 11:57:47
Time 01:49:22 | Step 133027127 / 1000000001 | TPS 20199.2 | ETA 11:55:21
Time 01:49:32 | Step 133229823 / 1000000001 | TPS 20269.6 | ETA 11:52:42
Time 01:49:42 | Step 133432378 / 1000000001 | TPS 20255.4 | ETA 11:53:01
Time 01:49:52 | Step 133634372 / 1000000001 | TPS 20199.4 | ETA 11:54:50
Time 01:50:02 | Step 133835579 / 1000000001 | TPS 20120.7 | ETA 11:57:28
Time 01:50:12 | Step 134037881 / 1000000001 | TPS 20230.1 | ETA 11:53:25
Time 01:50:22 | Step 134238399 / 1000000001 | TPS 20051.7 | ETA 11:59:36
Time 01:50:32 | Step 134441101 / 1000000001 | TPS 20270.1 | ETA 11:51:41
Time 01:50:42 | Step 134643977 / 1000000001 | TPS 20287.5 | ETA 11:50:54
Time 01:50:52 | Step 134847436 / 1000000001 | TPS 20345.8 | ETA 11:48:42
Time 01:51:02 | Step 135049417 / 1000000001 | TPS 20197.9 | ETA 11:53:43
Time 01:51:12 | Step 135252320 / 1000000001 | TPS 20290.3 | ETA 11:50:18
Time 01:51:22 | Step 135455401 / 1000000001 | TPS 20308 | ETA 11:49:31
Time 01:51:32 | Step 135658470 / 1000000001 | TPS 20306.8 | ETA 11:49:24
Time 01:51:42 | Step 135862419 / 1000000001 | TPS 20394.9 | ETA 11:46:10
Time 01:51:52 | Step 136064884 / 1000000001 | TPS 20246.5 | ETA 11:51:10
Time 01:52:02 | Step 136267328 / 1000000001 | TPS 20244.3 | ETA 11:51:05
Time 01:52:12 | Step 136470486 / 1000000001 | TPS 20315.8 | ETA 11:48:25
Time 01:52:22 | Step 136672723 / 1000000001 | TPS 20223.6 | ETA 11:51:29
Time 01:52:32 | Step 136876023 / 1000000001 | TPS 20329.9 | ETA 11:47:35
Time 01:52:42 | Step 137077867 / 1000000001 | TPS 20184.3 | ETA 11:52:32
Time 01:52:52 | Step 137280476 / 1000000001 | TPS 20260.9 | ETA 11:49:40
Time 01:53:02 | Step 137483636 / 1000000001 | TPS 20315.9 | ETA 11:47:35
Time 01:53:12 | Step 137686041 / 1000000001 | TPS 20240.3 | ETA 11:50:03
Time 01:53:22 | Step 137888890 / 1000000001 | TPS 20284.9 | ETA 11:48:20
Time 01:53:32 | Step 138091898 / 1000000001 | TPS 20300.7 | ETA 11:47:36
Time 01:53:42 | Step 138295149 / 1000000001 | TPS 20324.9 | ETA 11:46:36
Time 01:53:52 | Step 138498729 / 1000000001 | TPS 20358 | ETA 11:45:17
Time 01:54:02 | Step 138702272 / 1000000001 | TPS 20354.3 | ETA 11:45:15
Time 01:54:12 | Step 138905772 / 1000000001 | TPS 20350 | ETA 11:45:14
Time 01:54:22 | Step 139107541 / 1000000001 | TPS 20176.8 | ETA 11:51:07
Time 01:54:32 | Step 139310279 / 1000000001 | TPS 20273.8 | ETA 11:47:33
Time 01:54:42 | Step 139517398 / 1000000001 | TPS 20711.9 | ETA 11:32:25
Time 01:54:52 | Step 139720044 / 1000000001 | TPS 20264.6 | ETA 11:47:32
Time 01:55:02 | Step 139922669 / 1000000001 | TPS 20262.5 | ETA 11:47:26
Time 01:55:12 | Step 140125705 / 1000000001 | TPS 20303.6 | ETA 11:45:50
Time 01:55:22 | Step 140328281 / 1000000001 | TPS 20257.6 | ETA 11:47:17
Time 01:55:32 | Step 140530589 / 1000000001 | TPS 20230.6 | ETA 11:48:03
Time 01:55:42 | Step 140733777 / 1000000001 | TPS 20318.6 | ETA 11:44:49
Time 01:55:52 | Step 140936629 / 1000000001 | TPS 20285.2 | ETA 11:45:49
Time 01:56:02 | Step 141139241 / 1000000001 | TPS 20261 | ETA 11:46:29
Time 01:56:12 | Step 141342855 / 1000000001 | TPS 20361.3 | ETA 11:42:50
Time 01:56:22 | Step 141545880 / 1000000001 | TPS 20302.4 | ETA 11:44:43
Time 01:56:32 | Step 141748796 / 1000000001 | TPS 20291.6 | ETA 11:44:55
Time 01:56:42 | Step 141952246 / 1000000001 | TPS 20344.9 | ETA 11:42:55
Time 01:56:52 | Step 142155787 / 1000000001 | TPS 20354 | ETA 11:42:26
Time 01:57:02 | Step 142359517 / 1000000001 | TPS 20372.9 | ETA 11:41:37
Time 01:57:12 | Step 142561877 / 1000000001 | TPS 20236 | ETA 11:46:11
Time 01:57:22 | Step 142763914 / 1000000001 | TPS 20203.7 | ETA 11:47:09
Time 01:57:32 | Step 142965816 / 1000000001 | TPS 20190.2 | ETA 11:47:28
Time 01:57:42 | Step 143168058 / 1000000001 | TPS 20224.1 | ETA 11:46:06
Time 01:57:52 | Step 143371133 / 1000000001 | TPS 20307.4 | ETA 11:43:03
Time 01:58:02 | Step 143573596 / 1000000001 | TPS 20246.2 | ETA 11:45:00
Time 01:58:12 | Step 143778291 / 1000000001 | TPS 20469.5 | ETA 11:37:09
Time 01:58:22 | Step 143981505 / 1000000001 | TPS 20321.4 | ETA 11:42:04
Time 01:58:32 | Step 144184514 / 1000000001 | TPS 20300.9 | ETA 11:42:36
Time 01:58:42 | Step 144386908 / 1000000001 | TPS 20239.3 | ETA 11:44:34
Time 01:58:52 | Step 144589535 / 1000000001 | TPS 20262.7 | ETA 11:43:36
Time 01:59:02 | Step 144791976 / 1000000001 | TPS 20244 | ETA 11:44:04
Time 01:59:12 | Step 144994694 / 1000000001 | TPS 20271.8 | ETA 11:42:57
Time 01:59:22 | Step 145198764 / 1000000001 | TPS 20407 | ETA 11:38:07
Time 01:59:32 | Step 145401320 / 1000000001 | TPS 20255.5 | ETA 11:43:10
Time 01:59:42 | Step 145604665 / 1000000001 | TPS 20334.5 | ETA 11:40:17
Time 01:59:52 | Step 145807857 / 1000000001 | TPS 20319.2 | ETA 11:40:38
Time 02:00:02 | Step 146009380 / 1000000001 | TPS 20152.2 | ETA 11:46:17
Time 02:00:12 | Step 146212002 / 1000000001 | TPS 20262.1 | ETA 11:42:17
Time 02:00:22 | Step 146415003 / 1000000001 | TPS 20300 | ETA 11:40:48
Time 02:00:32 | Step 146619087 / 1000000001 | TPS 20408.3 | ETA 11:36:55
Time 02:00:42 | Step 146821888 / 1000000001 | TPS 20280.1 | ETA 11:41:09
Time 02:00:52 | Step 147024574 / 1000000001 | TPS 20268.6 | ETA 11:41:23
Time 02:01:02 | Step 147227280 / 1000000001 | TPS 20270.6 | ETA 11:41:09
Time 02:01:12 | Step 147430829 / 1000000001 | TPS 20354.9 | ETA 11:38:05
Time 02:01:22 | Step 147636335 / 1000000001 | TPS 20550.6 | ETA 11:31:16
Time 02:01:32 | Step 147839834 / 1000000001 | TPS 20349.8 | ETA 11:37:55
Time 02:01:42 | Step 148042315 / 1000000001 | TPS 20248.1 | ETA 11:41:16
Time 02:01:52 | Step 148244605 / 1000000001 | TPS 20229 | ETA 11:41:45
Time 02:02:02 | Step 148447917 / 1000000001 | TPS 20331.1 | ETA 11:38:04
Time 02:02:12 | Step 148650097 / 1000000001 | TPS 20217.8 | ETA 11:41:48
Time 02:02:22 | Step 148853070 / 1000000001 | TPS 20297.2 | ETA 11:38:54
Time 02:02:32 | Step 149055735 / 1000000001 | TPS 20266.3 | ETA 11:39:48
Time 02:02:42 | Step 149258772 / 1000000001 | TPS 20303.7 | ETA 11:38:20
Time 02:02:52 | Step 149460746 / 1000000001 | TPS 20197.2 | ETA 11:41:51
Time 02:03:02 | Step 149663043 / 1000000001 | TPS 20229.7 | ETA 11:40:34
Time 02:03:12 | Step 149866521 / 1000000001 | TPS 20347.8 | ETA 11:36:20
Time 02:03:22 | Step 150070534 / 1000000001 | TPS 20401.3 | ETA 11:34:20
Time 02:03:32 | Step 150273575 / 1000000001 | TPS 20304.1 | ETA 11:37:30
Time 02:03:42 | Step 150477085 / 1000000001 | TPS 20350.9 | ETA 11:35:43
Time 02:03:52 | Step 150679740 / 1000000001 | TPS 20265.4 | ETA 11:38:29
Time 02:04:02 | Step 150882099 / 1000000001 | TPS 20235.8 | ETA 11:39:21
Time 02:04:12 | Step 151082913 / 1000000001 | TPS 20081.3 | ETA 11:44:33
Time 02:04:22 | Step 151285587 / 1000000001 | TPS 20267.4 | ETA 11:37:55
Time 02:04:32 | Step 151489222 / 1000000001 | TPS 20363.5 | ETA 11:34:28
Time 02:04:42 | Step 151691802 / 1000000001 | TPS 20258 | ETA 11:37:55
Time 02:04:52 | Step 151892701 / 1000000001 | TPS 20089.8 | ETA 11:43:35
Time 02:05:02 | Step 152094252 / 1000000001 | TPS 20155.1 | ETA 11:41:09
Time 02:05:12 | Step 152297261 / 1000000001 | TPS 20300.9 | ETA 11:35:56
Time 02:05:22 | Step 152499495 / 1000000001 | TPS 20223.4 | ETA 11:38:27
Time 02:05:32 | Step 152700273 / 1000000001 | TPS 20077.7 | ETA 11:43:21
Time 02:05:42 | Step 152901221 / 1000000001 | TPS 20094.8 | ETA 11:42:35
Time 02:05:52 | Step 153104149 / 1000000001 | TPS 20292.8 | ETA 11:35:33
Time 02:06:02 | Step 153306687 / 1000000001 | TPS 20253.7 | ETA 11:36:44
Time 02:06:12 | Step 153508660 / 1000000001 | TPS 20197.3 | ETA 11:38:31
Time 02:06:22 | Step 153710707 / 1000000001 | TPS 20204.7 | ETA 11:38:05
Time 02:06:32 | Step 153914316 / 1000000001 | TPS 20360.9 | ETA 11:32:34
Time 02:06:42 | Step 154116887 / 1000000001 | TPS 20257.1 | ETA 11:35:57
Time 02:06:52 | Step 154319551 / 1000000001 | TPS 20266.4 | ETA 11:35:28
Time 02:07:02 | Step 154521619 / 1000000001 | TPS 20206.8 | ETA 11:37:21
Time 02:07:12 | Step 154723991 / 1000000001 | TPS 20237.2 | ETA 11:36:08
Time 02:07:22 | Step 154927731 / 1000000001 | TPS 20373.9 | ETA 11:31:18
Time 02:07:32 | Step 155130931 / 1000000001 | TPS 20320 | ETA 11:32:58
Time 02:07:42 | Step 155334024 / 1000000001 | TPS 20309.2 | ETA 11:33:10
Time 02:07:52 | Step 155536273 / 1000000001 | TPS 20224.8 | ETA 11:35:53
Time 02:08:02 | Step 155739383 / 1000000001 | TPS 20311 | ETA 11:32:46
Time 02:08:12 | Step 155941685 / 1000000001 | TPS 20230.2 | ETA 11:35:22
Time 02:08:22 | Step 156142250 / 1000000001 | TPS 20056.3 | ETA 11:41:14
Time 02:08:32 | Step 156344444 / 1000000001 | TPS 20219.4 | ETA 11:35:25
Time 02:08:42 | Step 156547144 / 1000000001 | TPS 20270 | ETA 11:33:30
Time 02:08:52 | Step 156749452 / 1000000001 | TPS 20230.8 | ETA 11:34:41
Time 02:09:02 | Step 156952157 / 1000000001 | TPS 20270.5 | ETA 11:33:09
Time 02:09:12 | Step 157155723 / 1000000001 | TPS 20356.6 | ETA 11:30:04
Time 02:09:22 | Step 157357867 / 1000000001 | TPS 20214.4 | ETA 11:34:45
Time 02:09:32 | Step 157561684 / 1000000001 | TPS 20381.7 | ETA 11:28:53
Time 02:09:42 | Step 157765006 / 1000000001 | TPS 20332.2 | ETA 11:30:23
Time 02:09:52 | Step 157968749 / 1000000001 | TPS 20374.3 | ETA 11:28:48
Time 02:10:02 | Step 158172125 / 1000000001 | TPS 20337.5 | ETA 11:29:52
Time 02:10:12 | Step 158375829 / 1000000001 | TPS 20370.2 | ETA 11:28:36
Time 02:10:22 | Step 158580445 / 1000000001 | TPS 20461.4 | ETA 11:25:22
Time 02:10:32 | Step 158783206 / 1000000001 | TPS 20276.1 | ETA 11:31:28
Time 02:10:42 | Step 158987411 / 1000000001 | TPS 20420.4 | ETA 11:26:24
Time 02:10:52 | Step 159189423 / 1000000001 | TPS 20201.2 | ETA 11:33:41
Time 02:11:02 | Step 159392469 / 1000000001 | TPS 20304.6 | ETA 11:29:59
Time 02:11:12 | Step 159594262 / 1000000001 | TPS 20179.2 | ETA 11:34:07
Time 02:11:22 | Step 159797238 / 1000000001 | TPS 20297.6 | ETA 11:29:54
Time 02:11:32 | Step 160000522 / 1000000001 | TPS 20328.3 | ETA 11:28:41
Time 02:11:42 | Step 160203872 / 1000000001 | TPS 20335 | ETA 11:28:18
Time 02:11:52 | Step 160407289 / 1000000001 | TPS 20341.6 | ETA 11:27:54
Time 02:12:02 | Step 160609643 / 1000000001 | TPS 20235.3 | ETA 11:31:21
Time 02:12:12 | Step 160813066 / 1000000001 | TPS 20342.3 | ETA 11:27:33
Time 02:12:22 | Step 161015019 / 1000000001 | TPS 20195.2 | ETA 11:32:23
Time 02:12:32 | Step 161218857 / 1000000001 | TPS 20383.6 | ETA 11:25:49
Time 02:12:42 | Step 161422969 / 1000000001 | TPS 20411.2 | ETA 11:24:44
Time 02:12:52 | Step 161626162 / 1000000001 | TPS 20319.3 | ETA 11:27:39
Time 02:13:02 | Step 161828555 / 1000000001 | TPS 20239.3 | ETA 11:30:13
Time 02:13:12 | Step 162031266 / 1000000001 | TPS 20271.1 | ETA 11:28:58
Time 02:13:22 | Step 162233527 / 1000000001 | TPS 20226.1 | ETA 11:30:20
Time 02:13:32 | Step 162435462 / 1000000001 | TPS 20193.5 | ETA 11:31:16
Time 02:13:42 | Step 162638340 / 1000000001 | TPS 20287.6 | ETA 11:27:54
Time 02:13:52 | Step 162840185 / 1000000001 | TPS 20184.5 | ETA 11:31:15
Time 02:14:02 | Step 163042741 / 1000000001 | TPS 20255.5 | ETA 11:28:40
Time 02:14:12 | Step 163245439 / 1000000001 | TPS 20269.7 | ETA 11:28:00
Time 02:14:22 | Step 163448317 / 1000000001 | TPS 20287.6 | ETA 11:27:14
Time 02:14:32 | Step 163651099 / 1000000001 | TPS 20278.1 | ETA 11:27:23
Time 02:14:42 | Step 163854745 / 1000000001 | TPS 20364.6 | ETA 11:24:18
Time 02:14:52 | Step 164057406 / 1000000001 | TPS 20266.1 | ETA 11:27:28
Time 02:15:02 | Step 164260599 / 1000000001 | TPS 20319.2 | ETA 11:25:30
Time 02:15:12 | Step 164464519 / 1000000001 | TPS 20392 | ETA 11:22:53
Time 02:15:22 | Step 164668101 / 1000000001 | TPS 20358 | ETA 11:23:52
Time 02:15:32 | Step 164869855 / 1000000001 | TPS 20175.4 | ETA 11:29:53
Time 02:15:42 | Step 165072354 / 1000000001 | TPS 20249.8 | ETA 11:27:11
Time 02:15:52 | Step 165275115 / 1000000001 | TPS 20276.1 | ETA 11:26:07
Time 02:16:02 | Step 165476916 / 1000000001 | TPS 20180 | ETA 11:29:13
Time 02:16:12 | Step 165677467 / 1000000001 | TPS 20055.1 | ETA 11:33:21
Time 02:16:22 | Step 165879517 / 1000000001 | TPS 20204.9 | ETA 11:28:03
Time 02:16:32 | Step 166080901 / 1000000001 | TPS 20138.2 | ETA 11:30:09
Time 02:16:42 | Step 166283473 / 1000000001 | TPS 20257 | ETA 11:25:56
Time 02:16:52 | Step 166486024 / 1000000001 | TPS 20255.1 | ETA 11:25:50
Time 02:17:02 | Step 166689586 / 1000000001 | TPS 20356.2 | ETA 11:22:16
Time 02:17:12 | Step 166893729 / 1000000001 | TPS 20414.1 | ETA 11:20:10
Time 02:17:22 | Step 167095385 / 1000000001 | TPS 20165.6 | ETA 11:28:23
Time 02:17:32 | Step 167301386 / 1000000001 | TPS 20600.1 | ETA 11:13:42
Time 02:17:42 | Step 167504465 / 1000000001 | TPS 20307.9 | ETA 11:23:13
Time 02:17:52 | Step 167707591 / 1000000001 | TPS 20312.4 | ETA 11:22:54
Time 02:18:02 | Step 167910165 / 1000000001 | TPS 20257.4 | ETA 11:24:35
Time 02:18:12 | Step 168113347 / 1000000001 | TPS 20318.2 | ETA 11:22:22
Time 02:18:22 | Step 168315909 / 1000000001 | TPS 20256.1 | ETA 11:24:18
Time 02:18:32 | Step 168520033 / 1000000001 | TPS 20412.3 | ETA 11:18:54
Time 02:18:42 | Step 168721953 / 1000000001 | TPS 20191.9 | ETA 11:26:08
Time 02:18:52 | Step 168923753 / 1000000001 | TPS 20180 | ETA 11:26:23
Time 02:19:02 | Step 169127010 / 1000000001 | TPS 20325.6 | ETA 11:21:18
Time 02:19:12 | Step 169328889 / 1000000001 | TPS 20187.8 | ETA 11:25:47
Time 02:19:22 | Step 169532457 / 1000000001 | TPS 20356.6 | ETA 11:19:55
Time 02:19:32 | Step 169736668 / 1000000001 | TPS 20421 | ETA 11:17:37
Time 02:19:42 | Step 169939172 / 1000000001 | TPS 20250.4 | ETA 11:23:09
Time 02:19:52 | Step 170143672 / 1000000001 | TPS 20450 | ETA 11:16:19
Time 02:20:02 | Step 170347892 / 1000000001 | TPS 20422 | ETA 11:17:05
Time 02:20:12 | Step 170550511 / 1000000001 | TPS 20261.8 | ETA 11:22:16
Time 02:20:22 | Step 170753809 / 1000000001 | TPS 20329.7 | ETA 11:19:49
Time 02:20:32 | Step 170957007 / 1000000001 | TPS 20319.6 | ETA 11:20:00
Time 02:20:42 | Step 171160701 / 1000000001 | TPS 20369.3 | ETA 11:18:10
Time 02:20:52 | Step 171362220 / 1000000001 | TPS 20151.8 | ETA 11:25:19
Time 02:21:02 | Step 171565471 / 1000000001 | TPS 20325.1 | ETA 11:19:19
Time 02:21:12 | Step 171768095 / 1000000001 | TPS 20262.3 | ETA 11:21:15
Time 02:21:22 | Step 171971490 / 1000000001 | TPS 20339.5 | ETA 11:18:30
Time 02:21:32 | Step 172175188 / 1000000001 | TPS 20369.8 | ETA 11:17:19
Time 02:21:42 | Step 172378502 / 1000000001 | TPS 20331.3 | ETA 11:18:26
Time 02:21:52 | Step 172581559 / 1000000001 | TPS 20305.7 | ETA 11:19:08
Time 02:22:02 | Step 172785542 / 1000000001 | TPS 20398.3 | ETA 11:15:53
Time 02:22:12 | Step 172989995 / 1000000001 | TPS 20445.3 | ETA 11:14:09
Time 02:22:22 | Step 173193687 / 1000000001 | TPS 20369.1 | ETA 11:16:31
Time 02:22:32 | Step 173396719 / 1000000001 | TPS 20303.2 | ETA 11:18:33
Time 02:22:42 | Step 173602102 / 1000000001 | TPS 20538.2 | ETA 11:10:37
Time 02:22:52 | Step 173806262 / 1000000001 | TPS 20416 | ETA 11:14:27
Time 02:23:02 | Step 174009030 / 1000000001 | TPS 20276.8 | ETA 11:18:55
Time 02:23:12 | Step 174211475 / 1000000001 | TPS 20244.5 | ETA 11:19:50
Time 02:23:22 | Step 174414981 / 1000000001 | TPS 20350.6 | ETA 11:16:08
Time 02:23:32 | Step 174618721 / 1000000001 | TPS 20373.9 | ETA 11:15:11
Time 02:23:42 | Step 174821845 / 1000000001 | TPS 20312.3 | ETA 11:17:04
Time 02:23:52 | Step 175024870 / 1000000001 | TPS 20302.5 | ETA 11:17:14
Time 02:24:02 | Step 175227943 / 1000000001 | TPS 20307.3 | ETA 11:16:54
Time 02:24:12 | Step 175431098 / 1000000001 | TPS 20315.5 | ETA 11:16:28
Time 02:24:22 | Step 175632156 / 1000000001 | TPS 20105.8 | ETA 11:23:21
Time 02:24:32 | Step 175833843 / 1000000001 | TPS 20168.6 | ETA 11:21:03
Time 02:24:42 | Step 176035478 / 1000000001 | TPS 20163.4 | ETA 11:21:04
Time 02:24:52 | Step 176239149 / 1000000001 | TPS 20367.1 | ETA 11:14:05
Time 02:25:02 | Step 176442333 / 1000000001 | TPS 20318.4 | ETA 11:15:32
Time 02:25:12 | Step 176645922 / 1000000001 | TPS 20358.9 | ETA 11:14:02
Time 02:25:22 | Step 176848793 / 1000000001 | TPS 20287.1 | ETA 11:16:15
Time 02:25:32 | Step 177050767 / 1000000001 | TPS 20197.4 | ETA 11:19:05
Time 02:25:42 | Step 177253768 / 1000000001 | TPS 20300.1 | ETA 11:15:29
Time 02:25:52 | Step 177456648 / 1000000001 | TPS 20288 | ETA 11:15:43
Time 02:26:02 | Step 177661905 / 1000000001 | TPS 20525.7 | ETA 11:07:43
Time 02:26:12 | Step 177865034 / 1000000001 | TPS 20312.8 | ETA 11:14:33
Time 02:26:22 | Step 178067681 / 1000000001 | TPS 20264.7 | ETA 11:15:59
Time 02:26:32 | Step 178271397 / 1000000001 | TPS 20371.6 | ETA 11:12:16
Time 02:26:42 | Step 178475023 / 1000000001 | TPS 20362.5 | ETA 11:12:25
Time 02:26:52 | Step 178678420 / 1000000001 | TPS 20339.7 | ETA 11:13:00
Time 02:27:02 | Step 178882000 / 1000000001 | TPS 20358 | ETA 11:12:13
Time 02:27:12 | Step 179085745 / 1000000001 | TPS 20374.5 | ETA 11:11:31
Time 02:27:22 | Step 179288184 / 1000000001 | TPS 20243.9 | ETA 11:15:41
Time 02:27:32 | Step 179491471 / 1000000001 | TPS 20328.6 | ETA 11:12:42
Time 02:27:42 | Step 179695289 / 1000000001 | TPS 20381.8 | ETA 11:10:47
Time 02:27:52 | Step 179897149 / 1000000001 | TPS 20186 | ETA 11:17:07
Time 02:28:02 | Step 180100380 / 1000000001 | TPS 20323 | ETA 11:12:23
Time 02:28:12 | Step 180302213 / 1000000001 | TPS 20183.2 | ETA 11:16:52
Time 02:28:22 | Step 180505902 / 1000000001 | TPS 20368.8 | ETA 11:10:32
Time 02:28:32 | Step 180709014 / 1000000001 | TPS 20311.2 | ETA 11:12:16
Time 02:28:42 | Step 180911401 / 1000000001 | TPS 20238.6 | ETA 11:14:31
Time 02:28:52 | Step 181113479 / 1000000001 | TPS 20207.8 | ETA 11:15:23
Time 02:29:02 | Step 181312272 / 1000000001 | TPS 19879.3 | ETA 11:26:23
Time 02:29:12 | Step 181514570 / 1000000001 | TPS 20229.8 | ETA 11:14:19
Time 02:29:22 | Step 181717122 / 1000000001 | TPS 20255.1 | ETA 11:13:18
Time 02:29:32 | Step 181920783 / 1000000001 | TPS 20366.1 | ETA 11:09:28
Time 02:29:42 | Step 182123935 / 1000000001 | TPS 20315.1 | ETA 11:10:59
Time 02:29:52 | Step 182328136 / 1000000001 | TPS 20420.1 | ETA 11:07:22
Time 02:30:02 | Step 182530874 / 1000000001 | TPS 20273.8 | ETA 11:12:01
Time 02:30:12 | Step 182733359 / 1000000001 | TPS 20248.4 | ETA 11:12:41
Time 02:30:22 | Step 182936745 / 1000000001 | TPS 20338.5 | ETA 11:09:33
Time 02:30:32 | Step 183139557 / 1000000001 | TPS 20281 | ETA 11:11:17
Time 02:30:42 | Step 183341412 / 1000000001 | TPS 20185.5 | ETA 11:14:17
Time 02:30:52 | Step 183542651 / 1000000001 | TPS 20123.8 | ETA 11:16:11
Time 02:31:02 | Step 183744461 / 1000000001 | TPS 20180.9 | ETA 11:14:06
Time 02:31:12 | Step 183947847 / 1000000001 | TPS 20338.6 | ETA 11:08:43
Time 02:31:22 | Step 184150424 / 1000000001 | TPS 20257.7 | ETA 11:11:13
Time 02:31:32 | Step 184353572 / 1000000001 | TPS 20314.7 | ETA 11:09:10
Time 02:31:42 | Step 184557392 / 1000000001 | TPS 20382 | ETA 11:06:47
Time 02:31:52 | Step 184760213 / 1000000001 | TPS 20282.1 | ETA 11:09:55
Time 02:32:02 | Step 184963439 / 1000000001 | TPS 20322.5 | ETA 11:08:25
Time 02:32:12 | Step 185165711 / 1000000001 | TPS 20227.1 | ETA 11:11:24
Time 02:32:22 | Step 185369492 / 1000000001 | TPS 20378.1 | ETA 11:06:15
Time 02:32:32 | Step 185572908 / 1000000001 | TPS 20341.5 | ETA 11:07:17
Time 02:32:42 | Step 185775181 / 1000000001 | TPS 20227.3 | ETA 11:10:53
Time 02:32:52 | Step 185978372 / 1000000001 | TPS 20319.1 | ETA 11:07:41
Time 02:33:02 | Step 186182357 / 1000000001 | TPS 20398.5 | ETA 11:04:55
Time 02:33:12 | Step 186385609 / 1000000001 | TPS 20325.2 | ETA 11:07:09
Time 02:33:22 | Step 186589568 / 1000000001 | TPS 20395.7 | ETA 11:04:41
Time 02:33:32 | Step 186794055 / 1000000001 | TPS 20448.5 | ETA 11:02:48
Time 02:33:42 | Step 186998829 / 1000000001 | TPS 20477.4 | ETA 11:01:42
Time 02:33:52 | Step 187199925 / 1000000001 | TPS 20109.4 | ETA 11:13:38
Time 02:34:02 | Step 187402363 / 1000000001 | TPS 20243.8 | ETA 11:09:00
Time 02:34:12 | Step 187604349 / 1000000001 | TPS 20198.4 | ETA 11:10:20
Time 02:34:22 | Step 187807874 / 1000000001 | TPS 20352.5 | ETA 11:05:06
Time 02:34:32 | Step 188010736 / 1000000001 | TPS 20286 | ETA 11:07:07
Time 02:34:42 | Step 188214217 / 1000000001 | TPS 20348.1 | ETA 11:04:54
Time 02:34:52 | Step 188417219 / 1000000001 | TPS 20300.1 | ETA 11:06:19
Time 02:35:02 | Step 188619522 / 1000000001 | TPS 20230.3 | ETA 11:08:27
Time 02:35:12 | Step 188822061 / 1000000001 | TPS 20253.9 | ETA 11:07:30
Time 02:35:22 | Step 189025316 / 1000000001 | TPS 20325.5 | ETA 11:04:59
Time 02:35:32 | Step 189228606 / 1000000001 | TPS 20328.9 | ETA 11:04:42
Time 02:35:42 | Step 189431435 / 1000000001 | TPS 20282.9 | ETA 11:06:03
Time 02:35:52 | Step 189633591 / 1000000001 | TPS 20215.5 | ETA 11:08:06
Time 02:36:02 | Step 189837385 / 1000000001 | TPS 20379.4 | ETA 11:02:34
Time 02:36:12 | Step 190040349 / 1000000001 | TPS 20296.3 | ETA 11:05:06
Time 02:36:22 | Step 190245128 / 1000000001 | TPS 20477.8 | ETA 10:59:02
Time 02:36:32 | Step 190447317 / 1000000001 | TPS 20218.8 | ETA 11:07:19
Time 02:36:42 | Step 190650256 / 1000000001 | TPS 20293.9 | ETA 11:04:41
Time 02:36:52 | Step 190853365 / 1000000001 | TPS 20310.8 | ETA 11:03:58
Time 02:37:02 | Step 191055774 / 1000000001 | TPS 20240.8 | ETA 11:06:05
Time 02:37:12 | Step 191260300 / 1000000001 | TPS 20452.4 | ETA 10:59:02
Time 02:37:22 | Step 191463881 / 1000000001 | TPS 20358.1 | ETA 11:01:55
Time 02:37:32 | Step 191667464 / 1000000001 | TPS 20358.2 | ETA 11:01:45
Time 02:37:42 | Step 191869891 / 1000000001 | TPS 20242.7 | ETA 11:05:22
Time 02:37:52 | Step 192071350 / 1000000001 | TPS 20145.7 | ETA 11:08:24
Time 02:38:02 | Step 192274407 / 1000000001 | TPS 20305.7 | ETA 11:02:58
Time 02:38:12 | Step 192478197 / 1000000001 | TPS 20378.8 | ETA 11:00:25
Time 02:38:22 | Step 192680462 / 1000000001 | TPS 20226.5 | ETA 11:05:14
Time 02:38:32 | Step 192882721 / 1000000001 | TPS 20225.9 | ETA 11:05:05
Time 02:38:42 | Step 193085307 / 1000000001 | TPS 20258.5 | ETA 11:03:50
Time 02:38:52 | Step 193286728 / 1000000001 | TPS 20141.9 | ETA 11:07:31
Time 02:39:02 | Step 193489649 / 1000000001 | TPS 20292 | ETA 11:02:25
Time 02:39:12 | Step 193692337 / 1000000001 | TPS 20268.8 | ETA 11:03:00
Time 02:39:22 | Step 193894980 / 1000000001 | TPS 20264.3 | ETA 11:02:59
Time 02:39:32 | Step 194097357 / 1000000001 | TPS 20237.6 | ETA 11:03:41
Time 02:39:42 | Step 194299107 / 1000000001 | TPS 20174.9 | ETA 11:05:35
Time 02:39:52 | Step 194501126 / 1000000001 | TPS 20201.9 | ETA 11:04:32
Time 02:40:02 | Step 194705117 / 1000000001 | TPS 20398.9 | ETA 10:57:57
Time 02:40:12 | Step 194907711 / 1000000001 | TPS 20259.2 | ETA 11:02:19
Time 02:40:22 | Step 195111023 / 1000000001 | TPS 20331.1 | ETA 10:59:48
Time 02:40:32 | Step 195314521 / 1000000001 | TPS 20349.7 | ETA 10:59:02
Time 02:40:42 | Step 195516309 / 1000000001 | TPS 20178.7 | ETA 11:04:28
Time 02:40:52 | Step 195719877 / 1000000001 | TPS 20356.7 | ETA 10:58:29
Time 02:41:02 | Step 195922758 / 1000000001 | TPS 20288 | ETA 11:00:33
Time 02:41:12 | Step 196126322 / 1000000001 | TPS 20356.4 | ETA 10:58:09
Time 02:41:22 | Step 196328102 / 1000000001 | TPS 20178 | ETA 11:03:49
Time 02:41:32 | Step 196529592 / 1000000001 | TPS 20149 | ETA 11:04:36
Time 02:41:42 | Step 196731985 / 1000000001 | TPS 20239.2 | ETA 11:01:28
Time 02:41:52 | Step 196935046 / 1000000001 | TPS 20306 | ETA 10:59:08
Time 02:42:02 | Step 197137863 / 1000000001 | TPS 20281.6 | ETA 10:59:45
Time 02:42:12 | Step 197339666 / 1000000001 | TPS 20180.2 | ETA 11:02:54
Time 02:42:22 | Step 197541784 / 1000000001 | TPS 20211.7 | ETA 11:01:42
Time 02:42:32 | Step 197743880 / 1000000001 | TPS 20209.5 | ETA 11:01:36
Time 02:42:42 | Step 197946412 / 1000000001 | TPS 20253.2 | ETA 11:00:01
Time 02:42:52 | Step 198148194 / 1000000001 | TPS 20178.2 | ETA 11:02:18
Time 02:43:02 | Step 198350473 / 1000000001 | TPS 20227.7 | ETA 11:00:31
Time 02:43:12 | Step 198551657 / 1000000001 | TPS 20118.2 | ETA 11:03:56
Time 02:43:22 | Step 198755004 / 1000000001 | TPS 20334.6 | ETA 10:56:43
Time 02:43:32 | Step 198957594 / 1000000001 | TPS 20259 | ETA 10:59:00
Time 02:43:42 | Step 199161539 / 1000000001 | TPS 20394.4 | ETA 10:54:27
Time 02:43:52 | Step 199365429 / 1000000001 | TPS 20389 | ETA 10:54:28
Time 02:44:02 | Step 199568757 / 1000000001 | TPS 20332.8 | ETA 10:56:06
Time 02:44:12 | Step 199769967 / 1000000001 | TPS 20121 | ETA 11:02:50
Time 02:44:22 | Step 199971747 / 1000000001 | TPS 20177.9 | ETA 11:00:48
Time 02:44:32 | Step 200174970 / 1000000001 | TPS 20322.3 | ETA 10:55:57
Time 02:44:42 | Step 200377804 / 1000000001 | TPS 20283.3 | ETA 10:57:02
Time 02:44:52 | Step 200580590 / 1000000001 | TPS 20278.6 | ETA 10:57:01
Time 02:45:02 | Step 200783508 / 1000000001 | TPS 20291.7 | ETA 10:56:26
Time 02:45:12 | Step 200986817 / 1000000001 | TPS 20330.8 | ETA 10:55:00
Time 02:45:22 | Step 201188597 / 1000000001 | TPS 20177.9 | ETA 10:59:48
Time 02:45:32 | Step 201391993 / 1000000001 | TPS 20339.5 | ETA 10:54:23
Time 02:45:42 | Step 201594833 / 1000000001 | TPS 20283.9 | ETA 10:56:01
Time 02:45:52 | Step 201796103 / 1000000001 | TPS 20127 | ETA 11:00:58
Time 02:46:02 | Step 201999219 / 1000000001 | TPS 20311.6 | ETA 10:54:47
Time 02:46:12 | Step 202201289 / 1000000001 | TPS 20206.9 | ETA 10:58:01
Time 02:46:22 | Step 202403932 / 1000000001 | TPS 20264.1 | ETA 10:56:00
Time 02:46:32 | Step 202606071 / 1000000001 | TPS 20213.9 | ETA 10:57:27
Time 02:46:42 | Step 202809391 / 1000000001 | TPS 20332 | ETA 10:53:28
Time 02:46:52 | Step 203012319 / 1000000001 | TPS 20292.7 | ETA 10:54:34
Time 02:47:02 | Step 203215285 / 1000000001 | TPS 20296.6 | ETA 10:54:17
Time 02:47:12 | Step 203417965 / 1000000001 | TPS 20268 | ETA 10:55:02
Time 02:47:22 | Step 203621493 / 1000000001 | TPS 20352.8 | ETA 10:52:08
Time 02:47:32 | Step 203822800 / 1000000001 | TPS 20130.6 | ETA 10:59:10
Time 02:47:42 | Step 204023452 / 1000000001 | TPS 20065.1 | ETA 11:01:09
Time 02:47:52 | Step 204225776 / 1000000001 | TPS 20232.4 | ETA 10:55:31
Time 02:48:02 | Step 204429099 / 1000000001 | TPS 20332.2 | ETA 10:52:08
Time 02:48:12 | Step 204632858 / 1000000001 | TPS 20375.9 | ETA 10:50:34
Time 02:48:22 | Step 204835685 / 1000000001 | TPS 20282.6 | ETA 10:53:24
Time 02:48:32 | Step 205037866 / 1000000001 | TPS 20218 | ETA 10:55:19
Time 02:48:42 | Step 205240603 / 1000000001 | TPS 20273.7 | ETA 10:53:21
Time 02:48:52 | Step 205442966 / 1000000001 | TPS 20236.2 | ETA 10:54:24
Time 02:49:02 | Step 205645497 / 1000000001 | TPS 20253.1 | ETA 10:53:41
Time 02:49:12 | Step 205849242 / 1000000001 | TPS 20374.5 | ETA 10:49:37
Time 02:49:22 | Step 206052301 / 1000000001 | TPS 20305.5 | ETA 10:51:40
[...]
Time 12:57:02 | Step 945500290 / 1000000001 | TPS 20230.1 | ETA 00:44:53
Time 12:57:12 | Step 945703549 / 1000000001 | TPS 20325.9 | ETA 00:44:31
Time 12:57:22 | Step 945906440 / 1000000001 | TPS 20289.1 | ETA 00:44:26
Time 12:57:32 | Step 946108682 / 1000000001 | TPS 20224.1 | ETA 00:44:24
Time 12:57:42 | Step 946311383 / 1000000001 | TPS 20270 | ETA 00:44:08
Time 12:57:52 | Step 946514762 / 1000000001 | TPS 20337.8 | ETA 00:43:49
Time 12:58:02 | Step 946717344 / 1000000001 | TPS 20258.1 | ETA 00:43:50
Time 12:58:12 | Step 946918857 / 1000000001 | TPS 20151.3 | ETA 00:43:54
Time 12:58:22 | Step 947120253 / 1000000001 | TPS 20139.5 | ETA 00:43:45
Time 12:58:32 | Step 947322727 / 1000000001 | TPS 20247.3 | ETA 00:43:21
Time 12:58:42 | Step 947525123 / 1000000001 | TPS 20239.6 | ETA 00:43:12
Time 12:58:52 | Step 947726140 / 1000000001 | TPS 20101.7 | ETA 00:43:20
Time 12:59:02 | Step 947928639 / 1000000001 | TPS 20249.8 | ETA 00:42:51
Time 12:59:12 | Step 948130003 / 1000000001 | TPS 20136.4 | ETA 00:42:55
Time 12:59:22 | Step 948331701 / 1000000001 | TPS 20169.7 | ETA 00:42:41
Time 12:59:32 | Step 948534138 / 1000000001 | TPS 20243.6 | ETA 00:42:22
Time 12:59:42 | Step 948738217 / 1000000001 | TPS 20407.9 | ETA 00:41:51
Time 12:59:52 | Step 948941629 / 1000000001 | TPS 20341.2 | ETA 00:41:50
Time 13:00:02 | Step 949144276 / 1000000001 | TPS 20264.6 | ETA 00:41:49
Time 13:00:12 | Step 949346741 / 1000000001 | TPS 20246.3 | ETA 00:41:41
Time 13:00:22 | Step 949549138 / 1000000001 | TPS 20239.7 | ETA 00:41:32
Time 13:00:32 | Step 949751999 / 1000000001 | TPS 20286 | ETA 00:41:16
Time 13:00:42 | Step 949955057 / 1000000001 | TPS 20305.7 | ETA 00:41:04
Time 13:00:52 | Step 950157443 / 1000000001 | TPS 20238.6 | ETA 00:41:02
Time 13:01:02 | Step 950359559 / 1000000001 | TPS 20211.5 | ETA 00:40:56
Time 13:01:12 | Step 950561423 / 1000000001 | TPS 20186.3 | ETA 00:40:49
Time 13:01:22 | Step 950763428 / 1000000001 | TPS 20200.5 | ETA 00:40:37
Time 13:01:32 | Step 950967130 / 1000000001 | TPS 20370.2 | ETA 00:40:07
Time 13:01:42 | Step 951167665 / 1000000001 | TPS 20053.3 | ETA 00:40:35
Time 13:01:52 | Step 951370329 / 1000000001 | TPS 20266.2 | ETA 00:39:59
Time 13:02:02 | Step 951573825 / 1000000001 | TPS 20349.5 | ETA 00:39:39
Time 13:02:12 | Step 951776668 / 1000000001 | TPS 20284.2 | ETA 00:39:37
Time 13:02:22 | Step 951979059 / 1000000001 | TPS 20239.1 | ETA 00:39:32
Time 13:02:32 | Step 952181476 / 1000000001 | TPS 20241.6 | ETA 00:39:22
Time 13:02:42 | Step 952384494 / 1000000001 | TPS 20301.8 | ETA 00:39:05
Time 13:02:52 | Step 952585077 / 1000000001 | TPS 20058.3 | ETA 00:39:23
Time 13:03:02 | Step 952787180 / 1000000001 | TPS 20210.3 | ETA 00:38:56
Time 13:03:12 | Step 952990052 / 1000000001 | TPS 20287 | ETA 00:38:37
Time 13:03:22 | Step 953192973 / 1000000001 | TPS 20292 | ETA 00:38:26
Time 13:03:32 | Step 953396539 / 1000000001 | TPS 20356.6 | ETA 00:38:09
Time 13:03:42 | Step 953599019 / 1000000001 | TPS 20247.9 | ETA 00:38:11
Time 13:03:52 | Step 953802801 / 1000000001 | TPS 20378 | ETA 00:37:47
Time 13:04:02 | Step 954005642 / 1000000001 | TPS 20284.1 | ETA 00:37:47
Time 13:04:12 | Step 954208556 / 1000000001 | TPS 20291.4 | ETA 00:37:36
Time 13:04:22 | Step 954410657 / 1000000001 | TPS 20209.9 | ETA 00:37:35
Time 13:04:32 | Step 954612406 / 1000000001 | TPS 20174.8 | ETA 00:37:29
Time 13:04:42 | Step 954813570 / 1000000001 | TPS 20116.4 | ETA 00:37:26
Time 13:04:52 | Step 955016226 / 1000000001 | TPS 20265.5 | ETA 00:36:59
Time 13:05:02 | Step 955219430 / 1000000001 | TPS 20320.4 | ETA 00:36:43
Time 13:05:12 | Step 955421701 / 1000000001 | TPS 20226.8 | ETA 00:36:43
Time 13:05:22 | Step 955624848 / 1000000001 | TPS 20314.7 | ETA 00:36:24
Time 13:05:32 | Step 955827705 / 1000000001 | TPS 20285.7 | ETA 00:36:17
Time 13:05:42 | Step 956030481 / 1000000001 | TPS 20277.6 | ETA 00:36:08
Time 13:05:52 | Step 956233418 / 1000000001 | TPS 20293.6 | ETA 00:35:56
Time 13:06:02 | Step 956434530 / 1000000001 | TPS 20111.2 | ETA 00:36:06
Time 13:06:12 | Step 956636957 / 1000000001 | TPS 20242.6 | ETA 00:35:42
Time 13:06:22 | Step 956839413 / 1000000001 | TPS 20245.5 | ETA 00:35:31
Time 13:06:32 | Step 957040738 / 1000000001 | TPS 20132.5 | ETA 00:35:33
Time 13:06:42 | Step 957243466 / 1000000001 | TPS 20272.7 | ETA 00:35:09
Time 13:06:52 | Step 957447001 / 1000000001 | TPS 20353.4 | ETA 00:34:50
Time 13:07:02 | Step 957650789 / 1000000001 | TPS 20378.8 | ETA 00:34:38
Time 13:07:12 | Step 957853620 / 1000000001 | TPS 20283 | ETA 00:34:37
Time 13:07:22 | Step 958053202 / 1000000001 | TPS 19958.2 | ETA 00:35:01
Time 13:07:32 | Step 958255602 / 1000000001 | TPS 20240 | ETA 00:34:22
Time 13:07:42 | Step 958457829 / 1000000001 | TPS 20222.6 | ETA 00:34:14
Time 13:07:52 | Step 958659925 / 1000000001 | TPS 20209.5 | ETA 00:34:05
Time 13:08:02 | Step 958862075 / 1000000001 | TPS 20214.9 | ETA 00:33:55
Time 13:08:12 | Step 959063530 / 1000000001 | TPS 20145.5 | ETA 00:33:52
Time 13:08:22 | Step 959267612 / 1000000001 | TPS 20408.2 | ETA 00:33:15
Time 13:08:32 | Step 959472968 / 1000000001 | TPS 20535.6 | ETA 00:32:53
Time 13:08:42 | Step 959676682 / 1000000001 | TPS 20371.4 | ETA 00:32:59
Time 13:08:52 | Step 959879820 / 1000000001 | TPS 20313.8 | ETA 00:32:55
Time 13:09:02 | Step 960082565 / 1000000001 | TPS 20274.4 | ETA 00:32:48
Time 13:09:12 | Step 960285865 / 1000000001 | TPS 20330 | ETA 00:32:33
Time 13:09:22 | Step 960488840 / 1000000001 | TPS 20297.4 | ETA 00:32:26
Time 13:09:32 | Step 960691501 / 1000000001 | TPS 20265.8 | ETA 00:32:19
Time 13:09:42 | Step 960893979 / 1000000001 | TPS 20247.7 | ETA 00:32:11
Time 13:09:52 | Step 961096076 / 1000000001 | TPS 20209.7 | ETA 00:32:05
Time 13:10:02 | Step 961297801 / 1000000001 | TPS 20172 | ETA 00:31:58
Time 13:10:12 | Step 961500936 / 1000000001 | TPS 20313.4 | ETA 00:31:35
Time 13:10:22 | Step 961703660 / 1000000001 | TPS 20272.4 | ETA 00:31:29
Time 13:10:32 | Step 961906543 / 1000000001 | TPS 20288.1 | ETA 00:31:17
Time 13:10:42 | Step 962109771 / 1000000001 | TPS 20322.8 | ETA 00:31:04
Time 13:10:52 | Step 962315927 / 1000000001 | TPS 20615.6 | ETA 00:30:27
Time 13:11:02 | Step 962518045 / 1000000001 | TPS 20211.7 | ETA 00:30:54
Time 13:11:12 | Step 962719984 / 1000000001 | TPS 20193.8 | ETA 00:30:46
Time 13:11:22 | Step 962922334 / 1000000001 | TPS 20235 | ETA 00:30:32
Time 13:11:32 | Step 963125437 / 1000000001 | TPS 20310.2 | ETA 00:30:15
Time 13:11:42 | Step 963328067 / 1000000001 | TPS 20262.9 | ETA 00:30:09
Time 13:11:52 | Step 963530442 / 1000000001 | TPS 20237.4 | ETA 00:30:02
Time 13:12:02 | Step 963734367 / 1000000001 | TPS 20392.5 | ETA 00:29:38
Time 13:12:12 | Step 963937927 / 1000000001 | TPS 20355.9 | ETA 00:29:31
Time 13:12:22 | Step 964140741 / 1000000001 | TPS 20281.4 | ETA 00:29:28
Time 13:12:32 | Step 964345243 / 1000000001 | TPS 20450.1 | ETA 00:29:03
Time 13:12:42 | Step 964550843 / 1000000001 | TPS 20559.9 | ETA 00:28:44
Time 13:12:52 | Step 964752672 / 1000000001 | TPS 20182.7 | ETA 00:29:06
Time 13:13:02 | Step 964954209 / 1000000001 | TPS 20153.6 | ETA 00:28:58
Time 13:13:12 | Step 965157994 / 1000000001 | TPS 20378.5 | ETA 00:28:29
Time 13:13:22 | Step 965362539 / 1000000001 | TPS 20454.4 | ETA 00:28:13
Time 13:13:32 | Step 965565169 / 1000000001 | TPS 20262.9 | ETA 00:28:19
Time 13:13:42 | Step 965767681 / 1000000001 | TPS 20251.2 | ETA 00:28:10
Time 13:13:52 | Step 965972171 / 1000000001 | TPS 20448.9 | ETA 00:27:44
Time 13:14:02 | Step 966175469 / 1000000001 | TPS 20329.7 | ETA 00:27:43
Time 13:14:12 | Step 966378399 / 1000000001 | TPS 20293 | ETA 00:27:36
Time 13:14:22 | Step 966580781 / 1000000001 | TPS 20238.1 | ETA 00:27:31
Time 13:14:32 | Step 966783149 / 1000000001 | TPS 20236.7 | ETA 00:27:21
Time 13:14:42 | Step 966985945 / 1000000001 | TPS 20279.6 | ETA 00:27:07
Time 13:14:52 | Step 967188334 / 1000000001 | TPS 20238.9 | ETA 00:27:01
Time 13:15:02 | Step 967392396 / 1000000001 | TPS 20406.2 | ETA 00:26:37
Time 13:15:12 | Step 967596185 / 1000000001 | TPS 20378.7 | ETA 00:26:30
Time 13:15:22 | Step 967799418 / 1000000001 | TPS 20323.2 | ETA 00:26:24
Time 13:15:32 | Step 968001833 / 1000000001 | TPS 20241.5 | ETA 00:26:20
Time 13:15:42 | Step 968204606 / 1000000001 | TPS 20277.3 | ETA 00:26:08
Time 13:15:52 | Step 968408007 / 1000000001 | TPS 20340.1 | ETA 00:25:53
Time 13:16:02 | Step 968610745 / 1000000001 | TPS 20273.7 | ETA 00:25:48
Time 13:16:12 | Step 968813921 / 1000000001 | TPS 20317.5 | ETA 00:25:34
Time 13:16:22 | Step 969015697 / 1000000001 | TPS 20177.5 | ETA 00:25:35
Time 13:16:32 | Step 969218077 / 1000000001 | TPS 20238 | ETA 00:25:20
Time 13:16:42 | Step 969419374 / 1000000001 | TPS 20129.6 | ETA 00:25:19
Time 13:16:52 | Step 969621095 / 1000000001 | TPS 20172.1 | ETA 00:25:05
Time 13:17:02 | Step 969823377 / 1000000001 | TPS 20228.2 | ETA 00:24:51
Time 13:17:12 | Step 970025561 / 1000000001 | TPS 20218.3 | ETA 00:24:42
Time 13:17:22 | Step 970228171 / 1000000001 | TPS 20261 | ETA 00:24:29
Time 13:17:32 | Step 970430288 / 1000000001 | TPS 20211.6 | ETA 00:24:23
Time 13:17:42 | Step 970632404 / 1000000001 | TPS 20211.6 | ETA 00:24:13
Time 13:17:52 | Step 970835151 / 1000000001 | TPS 20274.6 | ETA 00:23:58
Time 13:18:02 | Step 971038076 / 1000000001 | TPS 20292.5 | ETA 00:23:47
Time 13:18:12 | Step 971241764 / 1000000001 | TPS 20368.8 | ETA 00:23:31
Time 13:18:22 | Step 971444291 / 1000000001 | TPS 20252.7 | ETA 00:23:29
Time 13:18:32 | Step 971646896 / 1000000001 | TPS 20260.3 | ETA 00:23:19
Time 13:18:42 | Step 971849314 / 1000000001 | TPS 20241.8 | ETA 00:23:10
Time 13:18:52 | Step 972051785 / 1000000001 | TPS 20247.1 | ETA 00:23:00
Time 13:19:02 | Step 972255788 / 1000000001 | TPS 20400.3 | ETA 00:22:39
Time 13:19:12 | Step 972459609 / 1000000001 | TPS 20382.1 | ETA 00:22:31
Time 13:19:22 | Step 972659652 / 1000000001 | TPS 20004.3 | ETA 00:22:46
Time 13:19:32 | Step 972861631 / 1000000001 | TPS 20197.9 | ETA 00:22:23
Time 13:19:42 | Step 973063412 / 1000000001 | TPS 20178.1 | ETA 00:22:14
Time 13:19:52 | Step 973265173 / 1000000001 | TPS 20176.1 | ETA 00:22:05
Time 13:20:02 | Step 973467200 / 1000000001 | TPS 20202.6 | ETA 00:21:53
Time 13:20:12 | Step 973669552 / 1000000001 | TPS 20235.2 | ETA 00:21:41
Time 13:20:22 | Step 973872380 / 1000000001 | TPS 20282.8 | ETA 00:21:28
Time 13:20:32 | Step 974074813 / 1000000001 | TPS 20243.3 | ETA 00:21:20
Time 13:20:42 | Step 974277888 / 1000000001 | TPS 20307.3 | ETA 00:21:06
Time 13:20:52 | Step 974481122 / 1000000001 | TPS 20323.4 | ETA 00:20:55
Time 13:21:02 | Step 974683860 / 1000000001 | TPS 20273.7 | ETA 00:20:48
Time 13:21:12 | Step 974887876 / 1000000001 | TPS 20401.5 | ETA 00:20:30
Time 13:21:22 | Step 975089668 / 1000000001 | TPS 20179.1 | ETA 00:20:34
Time 13:21:32 | Step 975292127 / 1000000001 | TPS 20245.8 | ETA 00:20:20
Time 13:21:42 | Step 975494286 / 1000000001 | TPS 20215.8 | ETA 00:20:12
Time 13:21:52 | Step 975696299 / 1000000001 | TPS 20201.2 | ETA 00:20:03
Time 13:22:02 | Step 975897533 / 1000000001 | TPS 20123.4 | ETA 00:19:57
Time 13:22:12 | Step 976098671 / 1000000001 | TPS 20113.8 | ETA 00:19:48
Time 13:22:22 | Step 976302072 / 1000000001 | TPS 20340.1 | ETA 00:19:25
Time 13:22:32 | Step 976504779 / 1000000001 | TPS 20270.6 | ETA 00:19:19
Time 13:22:42 | Step 976706837 / 1000000001 | TPS 20205.7 | ETA 00:19:12
Time 13:22:52 | Step 976909801 / 1000000001 | TPS 20296.2 | ETA 00:18:57
Time 13:23:02 | Step 977112165 / 1000000001 | TPS 20236.3 | ETA 00:18:51
Time 13:23:12 | Step 977312552 / 1000000001 | TPS 20038.7 | ETA 00:18:52
Time 13:23:22 | Step 977515278 / 1000000001 | TPS 20272.6 | ETA 00:18:29
Time 13:23:32 | Step 977718114 / 1000000001 | TPS 20283.6 | ETA 00:18:18
Time 13:23:42 | Step 977920056 / 1000000001 | TPS 20194.2 | ETA 00:18:13
Time 13:23:52 | Step 978123159 / 1000000001 | TPS 20310.2 | ETA 00:17:57
Time 13:24:02 | Step 978324928 / 1000000001 | TPS 20176.8 | ETA 00:17:54
Time 13:24:12 | Step 978526923 / 1000000001 | TPS 20199.4 | ETA 00:17:43
Time 13:24:22 | Step 978729129 / 1000000001 | TPS 20220.4 | ETA 00:17:31
Time 13:24:32 | Step 978933445 / 1000000001 | TPS 20431.6 | ETA 00:17:11
Time 13:24:42 | Step 979136483 / 1000000001 | TPS 20303.8 | ETA 00:17:07
Time 13:24:52 | Step 979339071 / 1000000001 | TPS 20258.8 | ETA 00:16:59
Time 13:25:02 | Step 979542718 / 1000000001 | TPS 20364.6 | ETA 00:16:44
Time 13:25:12 | Step 979745858 / 1000000001 | TPS 20313.9 | ETA 00:16:37
Time 13:25:22 | Step 979949749 / 1000000001 | TPS 20389 | ETA 00:16:23
Time 13:25:32 | Step 980152361 / 1000000001 | TPS 20261.2 | ETA 00:16:19
Time 13:25:42 | Step 980356264 / 1000000001 | TPS 20390.3 | ETA 00:16:03
Time 13:25:52 | Step 980559357 / 1000000001 | TPS 20309.1 | ETA 00:15:57
Time 13:26:02 | Step 980762300 / 1000000001 | TPS 20294.2 | ETA 00:15:47
Time 13:26:12 | Step 980964978 / 1000000001 | TPS 20267.8 | ETA 00:15:39
Time 13:26:22 | Step 981167414 / 1000000001 | TPS 20243.6 | ETA 00:15:30
Time 13:26:32 | Step 981369634 / 1000000001 | TPS 20222 | ETA 00:15:21
Time 13:26:42 | Step 981574328 / 1000000001 | TPS 20469.4 | ETA 00:15:00
Time 13:26:52 | Step 981779464 / 1000000001 | TPS 20513.5 | ETA 00:14:48
Time 13:27:02 | Step 981981684 / 1000000001 | TPS 20221.9 | ETA 00:14:51
Time 13:27:12 | Step 982183221 / 1000000001 | TPS 20153.6 | ETA 00:14:44
Time 13:27:22 | Step 982385100 / 1000000001 | TPS 20187.9 | ETA 00:14:32
Time 13:27:32 | Step 982588757 / 1000000001 | TPS 20365.6 | ETA 00:14:14
Time 13:27:42 | Step 982792030 / 1000000001 | TPS 20327.3 | ETA 00:14:06
Time 13:27:52 | Step 982994146 / 1000000001 | TPS 20211.5 | ETA 00:14:01
Time 13:28:02 | Step 983196891 / 1000000001 | TPS 20274.3 | ETA 00:13:48
Time 13:28:12 | Step 983399507 / 1000000001 | TPS 20261.6 | ETA 00:13:39
Time 13:28:22 | Step 983601783 / 1000000001 | TPS 20227.6 | ETA 00:13:30
Time 13:28:32 | Step 983804927 / 1000000001 | TPS 20314.4 | ETA 00:13:17
Time 13:28:42 | Step 984006707 / 1000000001 | TPS 20177.9 | ETA 00:13:12
Time 13:28:52 | Step 984209812 / 1000000001 | TPS 20310.5 | ETA 00:12:57
Time 13:29:02 | Step 984412910 / 1000000001 | TPS 20309.7 | ETA 00:12:47
Time 13:29:12 | Step 984614347 / 1000000001 | TPS 20143.6 | ETA 00:12:43
Time 13:29:22 | Step 984816992 / 1000000001 | TPS 20264.4 | ETA 00:12:29
Time 13:29:32 | Step 985017587 / 1000000001 | TPS 20059.5 | ETA 00:12:26
Time 13:29:42 | Step 985219826 / 1000000001 | TPS 20223.9 | ETA 00:12:10
Time 13:29:52 | Step 985422298 / 1000000001 | TPS 20247 | ETA 00:11:59
Time 13:30:02 | Step 985623301 / 1000000001 | TPS 20100.2 | ETA 00:11:55
Time 13:30:12 | Step 985826410 / 1000000001 | TPS 20310.7 | ETA 00:11:37
Time 13:30:22 | Step 986029408 / 1000000001 | TPS 20299.7 | ETA 00:11:28
Time 13:30:32 | Step 986231727 / 1000000001 | TPS 20231.8 | ETA 00:11:20
Time 13:30:42 | Step 986434494 / 1000000001 | TPS 20276.6 | ETA 00:11:09
Time 13:30:52 | Step 986637085 / 1000000001 | TPS 20259 | ETA 00:10:59
Time 13:31:02 | Step 986840468 / 1000000001 | TPS 20338.3 | ETA 00:10:47
Time 13:31:12 | Step 987045356 / 1000000001 | TPS 20488.7 | ETA 00:10:32
Time 13:31:22 | Step 987248820 / 1000000001 | TPS 20346.3 | ETA 00:10:26
Time 13:31:32 | Step 987450996 / 1000000001 | TPS 20217.5 | ETA 00:10:20
Time 13:31:42 | Step 987653671 / 1000000001 | TPS 20267.4 | ETA 00:10:09
Time 13:31:52 | Step 987855817 / 1000000001 | TPS 20214.4 | ETA 00:10:00
Time 13:32:02 | Step 988059262 / 1000000001 | TPS 20344.5 | ETA 00:09:46
Time 13:32:12 | Step 988262323 / 1000000001 | TPS 20306.1 | ETA 00:09:38
Time 13:32:22 | Step 988465125 / 1000000001 | TPS 20280 | ETA 00:09:28
Time 13:32:32 | Step 988667425 / 1000000001 | TPS 20229.9 | ETA 00:09:20
Time 13:32:42 | Step 988870735 / 1000000001 | TPS 20331 | ETA 00:09:07
Time 13:32:52 | Step 989075291 / 1000000001 | TPS 20455.6 | ETA 00:08:54
Time 13:33:02 | Step 989277805 / 1000000001 | TPS 20251.3 | ETA 00:08:49
Time 13:33:12 | Step 989481416 / 1000000001 | TPS 20361 | ETA 00:08:36
Time 13:33:22 | Step 989684643 / 1000000001 | TPS 20322.7 | ETA 00:08:27
Time 13:33:32 | Step 989887393 / 1000000001 | TPS 20274.9 | ETA 00:08:18
Time 13:33:42 | Step 990089753 / 1000000001 | TPS 20236 | ETA 00:08:09
Time 13:33:52 | Step 990291558 / 1000000001 | TPS 20180.4 | ETA 00:08:01
Time 13:34:02 | Step 990494224 / 1000000001 | TPS 20266.5 | ETA 00:07:49
Time 13:34:12 | Step 990696564 / 1000000001 | TPS 20233.9 | ETA 00:07:39
Time 13:34:22 | Step 990898463 / 1000000001 | TPS 20189.9 | ETA 00:07:30
Time 13:34:32 | Step 991102627 / 1000000001 | TPS 20416.2 | ETA 00:07:15
Time 13:34:42 | Step 991306081 / 1000000001 | TPS 20345.3 | ETA 00:07:07
Time 13:34:52 | Step 991507589 / 1000000001 | TPS 20150.7 | ETA 00:07:01
Time 13:35:02 | Step 991709689 / 1000000001 | TPS 20210 | ETA 00:06:50
Time 13:35:12 | Step 991912987 / 1000000001 | TPS 20329.8 | ETA 00:06:37
Time 13:35:22 | Step 992115257 / 1000000001 | TPS 20226.8 | ETA 00:06:29
Time 13:35:32 | Step 992317893 / 1000000001 | TPS 20263.5 | ETA 00:06:19
Time 13:35:42 | Step 992519863 / 1000000001 | TPS 20196.9 | ETA 00:06:10
Time 13:35:52 | Step 992722392 / 1000000001 | TPS 20252.8 | ETA 00:05:59
Time 13:36:02 | Step 992922853 / 1000000001 | TPS 20046 | ETA 00:05:53
Time 13:36:12 | Step 993125220 / 1000000001 | TPS 20236.7 | ETA 00:05:39
Time 13:36:22 | Step 993327954 / 1000000001 | TPS 20273.3 | ETA 00:05:29
Time 13:36:32 | Step 993530565 / 1000000001 | TPS 20261.1 | ETA 00:05:19
Time 13:36:42 | Step 993733159 / 1000000001 | TPS 20259.4 | ETA 00:05:09
Time 13:36:52 | Step 993937182 / 1000000001 | TPS 20402.2 | ETA 00:04:57
Time 13:37:02 | Step 994139867 / 1000000001 | TPS 20268.4 | ETA 00:04:49
Time 13:37:12 | Step 994342953 / 1000000001 | TPS 20308.5 | ETA 00:04:38
Time 13:37:22 | Step 994545105 / 1000000001 | TPS 20215.2 | ETA 00:04:29
Time 13:37:32 | Step 994746574 / 1000000001 | TPS 20146.8 | ETA 00:04:20
Time 13:37:42 | Step 994948426 / 1000000001 | TPS 20185.1 | ETA 00:04:10
Time 13:37:52 | Step 995150367 / 1000000001 | TPS 20194 | ETA 00:04:00
Time 13:38:02 | Step 995353914 / 1000000001 | TPS 20354.7 | ETA 00:03:48
Time 13:38:12 | Step 995556514 / 1000000001 | TPS 20260 | ETA 00:03:39
Time 13:38:22 | Step 995759728 / 1000000001 | TPS 20321.3 | ETA 00:03:28
Time 13:38:32 | Step 995962583 / 1000000001 | TPS 20285.4 | ETA 00:03:19
Time 13:38:42 | Step 996162997 / 1000000001 | TPS 20041.3 | ETA 00:03:11
Time 13:38:52 | Step 996366560 / 1000000001 | TPS 20356.3 | ETA 00:02:58
Time 13:39:02 | Step 996569966 / 1000000001 | TPS 20340.6 | ETA 00:02:48
Time 13:39:12 | Step 996773262 / 1000000001 | TPS 20329.5 | ETA 00:02:38
Time 13:39:22 | Step 996976079 / 1000000001 | TPS 20281.6 | ETA 00:02:29
Time 13:39:32 | Step 997178278 / 1000000001 | TPS 20219.9 | ETA 00:02:19
Time 13:39:42 | Step 997381166 / 1000000001 | TPS 20288.8 | ETA 00:02:09
Time 13:39:52 | Step 997584065 / 1000000001 | TPS 20289.7 | ETA 00:01:59
Time 13:40:02 | Step 997787557 / 1000000001 | TPS 20349.1 | ETA 00:01:48
Time 13:40:12 | Step 997990555 / 1000000001 | TPS 20299.7 | ETA 00:01:38
Time 13:40:22 | Step 998194093 / 1000000001 | TPS 20353.8 | ETA 00:01:28
Time 13:40:32 | Step 998397012 / 1000000001 | TPS 20291.9 | ETA 00:01:18
Time 13:40:42 | Step 998600305 / 1000000001 | TPS 20329.3 | ETA 00:01:08
Time 13:40:52 | Step 998802711 / 1000000001 | TPS 20240.6 | ETA 00:00:59
Time 13:41:02 | Step 999005096 / 1000000001 | TPS 20238.5 | ETA 00:00:49
Time 13:41:12 | Step 999208358 / 1000000001 | TPS 20326.1 | ETA 00:00:38
Time 13:41:22 | Step 999411629 / 1000000001 | TPS 20327.1 | ETA 00:00:28
Time 13:41:32 | Step 999615487 / 1000000001 | TPS 20385.7 | ETA 00:00:18
Time 13:41:42 | Step 999819283 / 1000000001 | TPS 20379.6 | ETA 00:00:08
Time 13:41:51 | Step 1000000001 / 1000000001 | TPS 20430.1 | ETA 00:00:00
Average TPS: 20280.3
---------
-- Neighborlist stats:
120483886 normal updates / 3333334 forced updates / 0 dangerous updates
n_neigh_min: 0 / n_neigh_max: 6 / n_neigh_avg: 0.685926
shortest rebuild period: 6
-- Cell list stats:
Dimension: 45, 45, 45
n_min    : 0 / n_max: 3 / n_avg: 0.0740741
** run complete **
