HOOMD-blue 2.9.6 CUDA (11.1) SINGLE SSE SSE2 
Compiled: 05/10/21
Copyright (c) 2009-2019 The Regents of the University of Michigan.
-----
You are using HOOMD-blue. Please cite the following:
* J A Anderson, J Glaser, and S C Glotzer. "HOOMD-blue: A Python package for
  high-performance molecular dynamics and hard particle Monte Carlo
  simulations", Computational Materials Science 173 (2020) 109363
-----
HOOMD-blue is running on the following GPU(s):
 [0] NVIDIA H100 80GB HBM3 132 SM_9.0 @ 1.98 GHz, 81007 MiB DRAM, MNG
Running on the GPU
Charges (in mV) are:
[-54.0, 44.0]
[95.0, 105.0]
Particle types: ['N', 'P']
Radius of N, P and ionic radii(s):  [95.0, 105.0, 99.75]
radiusN: 95.0
radiusP: 105.0
Electrostatic prefactors are:  {('N', 'N'): 299.83507046393714, ('N', 'P'): -256.52556028581284, ('P', 'P'): 220.02192305215914}
Steric prefactors are:  {('N', 'N'): 368.3741785809289, ('N', 'P'): 387.76229324308304, ('P', 'P'): 407.15040790523716}
Lattice_type:  sc
Lattice site is: P
Putting satellite particles at a distance of 286.000000 from center particles
num_satellite_per_center: 1
snapshot_creation.py:075  |      center_unit_cell = lattice(a=lattice_spacing*2*radius_latticesite)
center_in_uc: 1
satellite_in_uc: 1
Total number of particles in each unit cell: 2
Total lattice spacing: 885.78
Setting mass N: 0.740633 (mass P: 1.000000)
['P', 'N']
Total number of lattice sites: 6750
[[-6200.45996094 -6200.45996094 -6200.45996094]
 [-6200.45996094 -5914.45996094 -6200.45996094]
 [-6200.45996094 -6200.45996094 -5314.68017578]
 ...
 [ 6200.45947266  6486.46044922  5314.68017578]
 [ 6200.45947266  6200.45947266  6200.45947266]
 [ 6200.45947266  6486.46044922  6200.45947266]]
Seed positions:
None
snapshot_creation.py:172  |      system=hoomd.init.read_snapshot(snapshot)
notice(2): Group "all" created containing 6750 particles
Box size:
Box: Lx=13286.7001953125 Ly=13286.7001953125 Lz=13286.7001953125 xy=0.0 xz=0.0 yz=0.0 dimensions=3
max_x,max_y,max_z
6643.35009765625 6643.35009765625 6643.35009765625
snapshot_creation.py:183  |          hoomd.update.box_resize(Lx = 2.*max_x+8*max_radius, Ly = 2.*max_y+8*max_radius, Lz=2.*max_z+8*max_radius, period=None,scale_particles=False)
Updated box size in presence of closed walls:
Box: Lx=14126.7001953125 Ly=14126.7001953125 Lz=14126.7001953125 xy=0.0 xz=0.0 yz=0.0 dimensions=3
Number of particles in system before adding any seed crystal:  6750
Removing lattice particles that overlap with particles of the seed crystal.........
add_interactions.py:006  |  nl = hoomd.md.nlist.cell()
add_interactions.py:007  |  nl.reset_exclusions(exclusions = ['1-2', 'body','constraint'])
notice(2): -- Neighborlist exclusion statistics -- :
notice(2): Particles with 0 exclusions             : 6750
notice(2): Neighbors included by diameter          : no
notice(2): Neighbors excluded when in the same body: no
Turning on closed walls along x/y/z with max_z: 7063.35009765625
add_interactions.py:032  |      wall_force = hoomd.md.wall.slj(wall_group,r_cut=max_radius*(2.0**(1.0/6.0)))
notice(2): Notice: slj set d_max=210.0
add_interactions.py:033  |      wall_force.force_coeff.set('N',epsilon=1,sigma=radiusN,alpha=0,r_cut=radiusN*(2.0**(1.0/6.0)))
add_interactions.py:034  |      wall_force.force_coeff.set('P',epsilon=1,sigma=radiusP,alpha=0,r_cut=radiusP*(2.0**(1.0/6.0)))
add_interactions.py:057  |  table = hoomd.md.pair.table(width=5000,nlist=nl)
*******************************************************************************************************************************************************************************
Setting potential for pair ('N', 'N') with radius_sum 190.0
add_interactions.py:080  |          table.pair_coeff.set(typei,typej, func=screened_potential_shifted_force,rmin=1.00005*radius_sum, rmax=potential_range,coeff=dict(radius_sum=radius_sum, steric_prefactor=steric_prefactors[key],electrostatic_prefactor=electrostatic_prefactors[key],H=sum_brush_lengths,d=debye_length),)
*******************************************************************************************************************************************************************************
Setting potential for pair ('N', 'P') with radius_sum 200.0
add_interactions.py:080  |          table.pair_coeff.set(typei,typej, func=screened_potential_shifted_force,rmin=1.00005*radius_sum, rmax=potential_range,coeff=dict(radius_sum=radius_sum, steric_prefactor=steric_prefactors[key],electrostatic_prefactor=electrostatic_prefactors[key],H=sum_brush_lengths,d=debye_length),)
*******************************************************************************************************************************************************************************
Setting potential for pair ('P', 'P') with radius_sum 210.0
add_interactions.py:080  |          table.pair_coeff.set(typei,typej, func=screened_potential_shifted_force,rmin=1.00005*radius_sum, rmax=potential_range,coeff=dict(radius_sum=radius_sum, steric_prefactor=steric_prefactors[key],electrostatic_prefactor=electrostatic_prefactors[key],H=sum_brush_lengths,d=debye_length),)
i,j,key,potential_min, potential_min_location
(0, 0, ('N', 'N'), 1.6940658945086007e-21, 296.50999999995304)
(0, 1, ('N', 'P'), -7.2004668265565686, 218.51969999999702)
(1, 1, ('P', 'P'), 0.0, 316.51000000001244)
run_dlvo_spheres_metal.py:011  |  all = hoomd.group.all()
run_dlvo_spheres_metal.py:000  |  from add_interactions import *

if temperature.find(':')>0:
    temp_list = np.array( temperature.split(':') ,dtype=float)
    assert len(temp_list)%2==0 and len(temp_list)>=0,"must give an even number of temperature arguments"
    temp_list = [tuple(x) for x in temp_list.reshape((-1,2))]
    temperature = hoomd.variant.linear_interp(points=temp_list)
else:
    temperature = float(temperature)

all = hoomd.group.all()


hoomd.analyze.log(filename=outputlogfile,
mode: langevin
run_dlvo_spheres_metal.py:029  |      hoomd.md.integrate.mode_standard(dt=dt)
run_dlvo_spheres_metal.py:030  |      ld=hoomd.md.integrate.langevin(group=all, kT=temperature, seed=seed)
notice(2): integrate.langevin/bd is using specified gamma values
Using gamma value as: 0.001
run_dlvo_spheres_metal.py:033  |          ld.set_gamma(particle_type,gamma)
run_dlvo_spheres_metal.py:033  |          ld.set_gamma(particle_type,gamma)
run_dlvo_spheres_metal.py:057  |  hoomd.dump.gsd(outputgsdfile, period=dump_frequency, group=all, overwrite=True,dynamic=['attribute','momentum','topology'])
run_dlvo_spheres_metal.py:058  |  hoomd.run(nsteps)
** starting run **
Time 00:00:11 | Step 245230 / 1000000001 | TPS 24523 | ETA 11:19:28
Time 00:00:21 | Step 492042 / 1000000001 | TPS 24681.2 | ETA 11:14:56
Time 00:00:31 | Step 737016 / 1000000001 | TPS 24497.4 | ETA 11:19:50
Time 00:00:41 | Step 983417 / 1000000001 | TPS 24640.1 | ETA 11:15:44
Time 00:00:51 | Step 1228331 / 1000000001 | TPS 24491.4 | ETA 11:19:40
Time 00:01:01 | Step 1475347 / 1000000001 | TPS 24701.5 | ETA 11:13:43
Time 00:01:11 | Step 1722089 / 1000000001 | TPS 24674 | ETA 11:14:18
Time 00:01:21 | Step 1968421 / 1000000001 | TPS 24633.2 | ETA 11:15:15
Time 00:01:31 | Step 2214370 / 1000000001 | TPS 24594.8 | ETA 11:16:08
Time 00:01:41 | Step 2460261 / 1000000001 | TPS 24589.1 | ETA 11:16:08
Time 00:01:51 | Step 2706570 / 1000000001 | TPS 24630.8 | ETA 11:14:49
Time 00:02:01 | Step 2953613 / 1000000001 | TPS 24704.2 | ETA 11:12:39
Time 00:02:11 | Step 3200997 / 1000000001 | TPS 24738.4 | ETA 11:11:33
Time 00:02:21 | Step 3447603 / 1000000001 | TPS 24660.5 | ETA 11:13:30
Time 00:02:31 | Step 3693854 / 1000000001 | TPS 24625.1 | ETA 11:14:18
Time 00:02:41 | Step 3941289 / 1000000001 | TPS 24743.3 | ETA 11:10:55
Time 00:02:51 | Step 4187124 / 1000000001 | TPS 24583.4 | ETA 11:15:07
Time 00:03:01 | Step 4434085 / 1000000001 | TPS 24696 | ETA 11:11:52
Time 00:03:11 | Step 4679083 / 1000000001 | TPS 24499.8 | ETA 11:17:05
Time 00:03:21 | Step 4924876 / 1000000001 | TPS 24579.2 | ETA 11:14:44
Time 00:03:31 | Step 5171446 / 1000000001 | TPS 24657 | ETA 11:12:26
Time 00:03:41 | Step 5417944 / 1000000001 | TPS 24649.8 | ETA 11:12:28
Time 00:03:51 | Step 5664888 / 1000000001 | TPS 24694.4 | ETA 11:11:05
Time 00:04:01 | Step 5912272 / 1000000001 | TPS 24738.4 | ETA 11:09:44
Time 00:04:11 | Step 6159039 / 1000000001 | TPS 24676.7 | ETA 11:11:14
Time 00:04:21 | Step 6405509 / 1000000001 | TPS 24646.9 | ETA 11:11:53
Time 00:04:31 | Step 6652501 / 1000000001 | TPS 24699 | ETA 11:10:18
Time 00:04:41 | Step 6898803 / 1000000001 | TPS 24630.2 | ETA 11:12:00
Time 00:04:51 | Step 7144979 / 1000000001 | TPS 24617.5 | ETA 11:12:11
Time 00:05:01 | Step 7390796 / 1000000001 | TPS 24581.6 | ETA 11:13:00
Time 00:05:11 | Step 7636687 / 1000000001 | TPS 24589 | ETA 11:12:37
Time 00:05:21 | Step 7883357 / 1000000001 | TPS 24667 | ETA 11:10:20
Time 00:05:31 | Step 8129695 / 1000000001 | TPS 24633.8 | ETA 11:11:04
Time 00:05:41 | Step 8374603 / 1000000001 | TPS 24490.8 | ETA 11:14:49
Time 00:05:51 | Step 8620970 / 1000000001 | TPS 24636.7 | ETA 11:10:39
Time 00:06:01 | Step 8868413 / 1000000001 | TPS 24744.2 | ETA 11:07:35
Time 00:06:11 | Step 9115477 / 1000000001 | TPS 24706.4 | ETA 11:08:26
Time 00:06:21 | Step 9361668 / 1000000001 | TPS 24619 | ETA 11:10:38
Time 00:06:31 | Step 9608306 / 1000000001 | TPS 24663.7 | ETA 11:09:15
Time 00:06:41 | Step 9854889 / 1000000001 | TPS 24658.3 | ETA 11:09:14
Time 00:06:51 | Step 10101879 / 1000000001 | TPS 24698.9 | ETA 11:07:58
Time 00:07:01 | Step 10348481 / 1000000001 | TPS 24660.1 | ETA 11:08:51
Time 00:07:11 | Step 10596149 / 1000000001 | TPS 24766.7 | ETA 11:05:49
Time 00:07:21 | Step 10842853 / 1000000001 | TPS 24670.3 | ETA 11:08:15
Time 00:07:31 | Step 11088506 / 1000000001 | TPS 24565.3 | ETA 11:10:56
Time 00:07:41 | Step 11335286 / 1000000001 | TPS 24677.9 | ETA 11:07:42
Time 00:07:51 | Step 11581906 / 1000000001 | TPS 24661.9 | ETA 11:07:58
Time 00:08:01 | Step 11827773 / 1000000001 | TPS 24586.7 | ETA 11:09:51
Time 00:08:11 | Step 12074242 / 1000000001 | TPS 24646.9 | ETA 11:08:03
Time 00:08:21 | Step 12320694 / 1000000001 | TPS 24645.1 | ETA 11:07:56
Time 00:08:31 | Step 12566372 / 1000000001 | TPS 24567.7 | ETA 11:09:52
Time 00:08:41 | Step 12812284 / 1000000001 | TPS 24591.2 | ETA 11:09:03
Time 00:08:51 | Step 13057461 / 1000000001 | TPS 24517.7 | ETA 11:10:54
Time 00:09:01 | Step 13302751 / 1000000001 | TPS 24529 | ETA 11:10:25
Time 00:09:11 | Step 13546972 / 1000000001 | TPS 24422 | ETA 11:13:11
Time 00:09:21 | Step 13790457 / 1000000001 | TPS 24348.4 | ETA 11:15:03
Time 00:09:31 | Step 14032801 / 1000000001 | TPS 24234.2 | ETA 11:18:04
Time 00:09:41 | Step 14275907 / 1000000001 | TPS 24310.5 | ETA 11:15:47
Time 00:09:51 | Step 14520105 / 1000000001 | TPS 24419.8 | ETA 11:12:35
Time 00:10:01 | Step 14759269 / 1000000001 | TPS 23916.3 | ETA 11:26:35
Time 00:10:11 | Step 15003329 / 1000000001 | TPS 24405.9 | ETA 11:12:38
Time 00:10:21 | Step 15244233 / 1000000001 | TPS 24090.4 | ETA 11:21:17
Time 00:10:31 | Step 15483648 / 1000000001 | TPS 23941.4 | ETA 11:25:21
Time 00:10:41 | Step 15720766 / 1000000001 | TPS 23711.7 | ETA 11:31:50
Time 00:10:51 | Step 15956609 / 1000000001 | TPS 23584.3 | ETA 11:35:24
Time 00:11:01 | Step 16194296 / 1000000001 | TPS 23768.7 | ETA 11:29:50
Time 00:11:11 | Step 16436195 / 1000000001 | TPS 24189.7 | ETA 11:17:40
Time 00:11:21 | Step 16673512 / 1000000001 | TPS 23731.7 | ETA 11:30:35
Time 00:11:31 | Step 16911099 / 1000000001 | TPS 23758.7 | ETA 11:29:38
Time 00:11:41 | Step 17145880 / 1000000001 | TPS 23477.9 | ETA 11:37:42
Time 00:11:51 | Step 17380265 / 1000000001 | TPS 23438.3 | ETA 11:38:43
Time 00:12:01 | Step 17615598 / 1000000001 | TPS 23533.1 | ETA 11:35:44
Time 00:12:11 | Step 17851291 / 1000000001 | TPS 23569.2 | ETA 11:34:30
Time 00:12:21 | Step 18085898 / 1000000001 | TPS 23460.6 | ETA 11:37:33
Time 00:12:31 | Step 18321306 / 1000000001 | TPS 23540.8 | ETA 11:35:01
Time 00:12:41 | Step 18553988 / 1000000001 | TPS 23268.1 | ETA 11:42:59
Time 00:12:51 | Step 18788579 / 1000000001 | TPS 23459.1 | ETA 11:37:06
Time 00:13:01 | Step 19015323 / 1000000001 | TPS 22674.4 | ETA 12:01:03
Time 00:13:11 | Step 19246597 / 1000000001 | TPS 23127.4 | ETA 11:46:46
Time 00:13:21 | Step 19473483 / 1000000001 | TPS 22688.5 | ETA 12:00:16
Time 00:13:31 | Step 19697533 / 1000000001 | TPS 22405 | ETA 12:09:13
Time 00:13:41 | Step 19921739 / 1000000001 | TPS 22420.4 | ETA 12:08:33
Time 00:13:51 | Step 20144251 / 1000000001 | TPS 22251.1 | ETA 12:13:56
Time 00:14:01 | Step 20365264 / 1000000001 | TPS 22101.1 | ETA 12:18:45
Time 00:14:11 | Step 20577782 / 1000000001 | TPS 21251.8 | ETA 12:48:06
Time 00:14:21 | Step 20789053 / 1000000001 | TPS 21127.1 | ETA 12:52:28
Time 00:14:31 | Step 20997205 / 1000000001 | TPS 20815.1 | ETA 13:03:53
Time 00:14:41 | Step 21218533 / 1000000001 | TPS 22132.8 | ETA 12:17:03
Time 00:14:51 | Step 21435356 / 1000000001 | TPS 21682.3 | ETA 12:32:12
Time 00:15:01 | Step 21650122 / 1000000001 | TPS 21476.6 | ETA 12:39:14
Time 00:15:11 | Step 21864068 / 1000000001 | TPS 21394.5 | ETA 12:41:58
Time 00:15:21 | Step 22074324 / 1000000001 | TPS 21025.5 | ETA 12:55:11
Time 00:15:31 | Step 22282790 / 1000000001 | TPS 20846.6 | ETA 13:01:40
Time 00:15:41 | Step 22488474 / 1000000001 | TPS 20568.3 | ETA 13:12:05
Time 00:15:51 | Step 22694236 / 1000000001 | TPS 20576.1 | ETA 13:11:37
Time 00:16:01 | Step 22900345 / 1000000001 | TPS 20610.8 | ETA 13:10:07
Time 00:16:11 | Step 23107716 / 1000000001 | TPS 20737 | ETA 13:05:08
Time 00:16:21 | Step 23311334 / 1000000001 | TPS 20361.7 | ETA 13:19:26
Time 00:16:31 | Step 23515070 / 1000000001 | TPS 20373.6 | ETA 13:18:49
Time 00:16:41 | Step 23724111 / 1000000001 | TPS 20904.1 | ETA 12:58:22
Time 00:16:51 | Step 23937880 / 1000000001 | TPS 21376.9 | ETA 12:40:59
Time 00:17:01 | Step 24145510 / 1000000001 | TPS 20762.9 | ETA 13:03:19
Time 00:17:11 | Step 24351050 / 1000000001 | TPS 20554 | ETA 13:11:07
Time 00:17:21 | Step 24555067 / 1000000001 | TPS 20401.7 | ETA 13:16:51
Time 00:17:31 | Step 24764597 / 1000000001 | TPS 20952.9 | ETA 12:55:44
Time 00:17:41 | Step 24972193 / 1000000001 | TPS 20759.4 | ETA 13:02:47
Time 00:17:51 | Step 25178659 / 1000000001 | TPS 20646.6 | ETA 13:06:54
Time 00:18:01 | Step 25388440 / 1000000001 | TPS 20978.1 | ETA 12:54:18
Time 00:18:11 | Step 25604397 / 1000000001 | TPS 21595.6 | ETA 12:32:00
Time 00:18:21 | Step 25809764 / 1000000001 | TPS 20536.7 | ETA 13:10:36
Time 00:18:31 | Step 26014944 / 1000000001 | TPS 20518 | ETA 13:11:09
Time 00:18:41 | Step 26226966 / 1000000001 | TPS 21202.2 | ETA 12:45:28
Time 00:18:51 | Step 26434375 / 1000000001 | TPS 20740.8 | ETA 13:02:19
Time 00:19:01 | Step 26642877 / 1000000001 | TPS 20850.2 | ETA 12:58:03
Time 00:19:11 | Step 26849832 / 1000000001 | TPS 20695.5 | ETA 13:03:42
Time 00:19:21 | Step 27059488 / 1000000001 | TPS 20965.4 | ETA 12:53:26
Time 00:19:31 | Step 27265424 / 1000000001 | TPS 20593.6 | ETA 13:07:14
Time 00:19:41 | Step 27471125 / 1000000001 | TPS 20569.9 | ETA 13:07:59
Time 00:19:51 | Step 27675617 / 1000000001 | TPS 20449.1 | ETA 13:12:28
Time 00:20:01 | Step 27880806 / 1000000001 | TPS 20518.8 | ETA 13:09:36
Time 00:20:11 | Step 28083824 / 1000000001 | TPS 20301.8 | ETA 13:17:53
Time 00:20:21 | Step 28287863 / 1000000001 | TPS 20403.9 | ETA 13:13:43
Time 00:20:31 | Step 28492847 / 1000000001 | TPS 20498.4 | ETA 13:09:54
Time 00:20:41 | Step 28701040 / 1000000001 | TPS 20819.3 | ETA 12:57:33
Time 00:20:51 | Step 28906394 / 1000000001 | TPS 20535.3 | ETA 13:08:09
Time 00:21:01 | Step 29109648 / 1000000001 | TPS 20325.3 | ETA 13:16:07
Time 00:21:11 | Step 29314143 / 1000000001 | TPS 20449.5 | ETA 13:11:07
Time 00:21:21 | Step 29522614 / 1000000001 | TPS 20847 | ETA 12:55:52
Time 00:21:31 | Step 29729383 / 1000000001 | TPS 20676.8 | ETA 13:02:05
Time 00:21:41 | Step 29934145 / 1000000001 | TPS 20476.1 | ETA 13:09:35
Time 00:21:51 | Step 30137976 / 1000000001 | TPS 20383.1 | ETA 13:13:01
Time 00:22:01 | Step 30340701 / 1000000001 | TPS 20272.4 | ETA 13:17:11
Time 00:22:11 | Step 30542503 / 1000000001 | TPS 20180.2 | ETA 13:20:40
Time 00:22:21 | Step 30745403 / 1000000001 | TPS 20290 | ETA 13:16:10
Time 00:22:31 | Step 30948293 / 1000000001 | TPS 20289 | ETA 13:16:02
Time 00:22:41 | Step 31153233 / 1000000001 | TPS 20494 | ETA 13:07:54
Time 00:22:51 | Step 31356312 / 1000000001 | TPS 20307.9 | ETA 13:14:57
Time 00:23:01 | Step 31558847 / 1000000001 | TPS 20253.5 | ETA 13:16:56
Time 00:23:11 | Step 31761097 / 1000000001 | TPS 20224.6 | ETA 13:17:54
Time 00:23:21 | Step 31965524 / 1000000001 | TPS 20442.7 | ETA 13:09:13
Time 00:23:31 | Step 32169330 / 1000000001 | TPS 20380.5 | ETA 13:11:27
Time 00:23:41 | Step 32373809 / 1000000001 | TPS 20447.7 | ETA 13:08:42
Time 00:23:51 | Step 32578468 / 1000000001 | TPS 20465.7 | ETA 13:07:50
Time 00:24:01 | Step 32782558 / 1000000001 | TPS 20409 | ETA 13:09:51
Time 00:24:11 | Step 32987867 / 1000000001 | TPS 20530.8 | ETA 13:05:00
Time 00:24:21 | Step 33195881 / 1000000001 | TPS 20801.3 | ETA 12:54:38
Time 00:24:31 | Step 33400714 / 1000000001 | TPS 20483.3 | ETA 13:06:29
Time 00:24:41 | Step 33603715 / 1000000001 | TPS 20300.1 | ETA 13:13:25
Time 00:24:51 | Step 33809059 / 1000000001 | TPS 20534.4 | ETA 13:04:12
Time 00:25:01 | Step 34011329 / 1000000001 | TPS 20227 | ETA 13:15:57
Time 00:25:11 | Step 34213682 / 1000000001 | TPS 20235.2 | ETA 13:15:27
Time 00:25:21 | Step 34417594 / 1000000001 | TPS 20391.2 | ETA 13:09:12
Time 00:25:31 | Step 34620919 / 1000000001 | TPS 20332.4 | ETA 13:11:19
Time 00:25:41 | Step 34824778 / 1000000001 | TPS 20385.9 | ETA 13:09:05
Time 00:25:51 | Step 35026973 / 1000000001 | TPS 20219.4 | ETA 13:15:25
Time 00:26:01 | Step 35230299 / 1000000001 | TPS 20332.6 | ETA 13:10:49
Time 00:26:11 | Step 35433391 / 1000000001 | TPS 20309.2 | ETA 13:11:34
Time 00:26:21 | Step 35638545 / 1000000001 | TPS 20515.3 | ETA 13:03:26
Time 00:26:31 | Step 35841638 / 1000000001 | TPS 20309.2 | ETA 13:11:13
Time 00:26:41 | Step 36042348 / 1000000001 | TPS 20071 | ETA 13:20:27
Time 00:26:51 | Step 36244545 / 1000000001 | TPS 20219.6 | ETA 13:14:24
Time 00:27:01 | Step 36447241 / 1000000001 | TPS 20269.5 | ETA 13:12:17
Time 00:27:11 | Step 36652485 / 1000000001 | TPS 20524.4 | ETA 13:02:16
Time 00:27:21 | Step 36859054 / 1000000001 | TPS 20656.9 | ETA 12:57:05
Time 00:27:31 | Step 37062420 / 1000000001 | TPS 20336.6 | ETA 13:09:10
Time 00:27:41 | Step 37266314 / 1000000001 | TPS 20389.4 | ETA 13:06:57
Time 00:27:51 | Step 37469666 / 1000000001 | TPS 20335.1 | ETA 13:08:53
Time 00:28:01 | Step 37674389 / 1000000001 | TPS 20472.3 | ETA 13:03:26
Time 00:28:11 | Step 37878836 / 1000000001 | TPS 20444.6 | ETA 13:04:19
Time 00:28:21 | Step 38082184 / 1000000001 | TPS 20334.8 | ETA 13:08:24
Time 00:28:31 | Step 38285474 / 1000000001 | TPS 20328.9 | ETA 13:08:27
Time 00:28:41 | Step 38489432 / 1000000001 | TPS 20395.8 | ETA 13:05:42
Time 00:28:51 | Step 38692490 / 1000000001 | TPS 20305.7 | ETA 13:09:01
Time 00:29:01 | Step 38895228 / 1000000001 | TPS 20273.8 | ETA 13:10:06
Time 00:29:11 | Step 39097383 / 1000000001 | TPS 20215.4 | ETA 13:12:13
Time 00:29:21 | Step 39301147 / 1000000001 | TPS 20376.4 | ETA 13:05:47
Time 00:29:31 | Step 39508648 / 1000000001 | TPS 20750.1 | ETA 12:51:28
Time 00:29:41 | Step 39715101 / 1000000001 | TPS 20645.2 | ETA 12:55:13
Time 00:29:51 | Step 39918256 / 1000000001 | TPS 20315.5 | ETA 13:07:38
Time 00:30:01 | Step 40120508 / 1000000001 | TPS 20225.2 | ETA 13:10:59
Time 00:30:11 | Step 40322964 / 1000000001 | TPS 20245.6 | ETA 13:10:01
Time 00:30:21 | Step 40524914 / 1000000001 | TPS 20194.9 | ETA 13:11:50
Time 00:30:31 | Step 40728191 / 1000000001 | TPS 20327.7 | ETA 13:06:30
Time 00:30:41 | Step 40930914 / 1000000001 | TPS 20272.3 | ETA 13:08:29
Time 00:30:51 | Step 41131985 / 1000000001 | TPS 20107 | ETA 13:14:48
Time 00:31:01 | Step 41333661 / 1000000001 | TPS 20167.6 | ETA 13:12:15
Time 00:31:11 | Step 41534787 / 1000000001 | TPS 20112.5 | ETA 13:14:15
Time 00:31:21 | Step 41736492 / 1000000001 | TPS 20170.4 | ETA 13:11:48
Time 00:31:31 | Step 41937989 / 1000000001 | TPS 20149.6 | ETA 13:12:27
Time 00:31:41 | Step 42140697 / 1000000001 | TPS 20270.8 | ETA 13:07:33
Time 00:31:51 | Step 42343728 / 1000000001 | TPS 20303.1 | ETA 13:06:08
Time 00:32:01 | Step 42548481 / 1000000001 | TPS 20475.2 | ETA 12:59:21
Time 00:32:11 | Step 42751195 / 1000000001 | TPS 20271.3 | ETA 13:07:01
Time 00:32:21 | Step 42954124 / 1000000001 | TPS 20292.9 | ETA 13:06:01
Time 00:32:31 | Step 43156866 / 1000000001 | TPS 20274.2 | ETA 13:06:35
Time 00:32:41 | Step 43359533 / 1000000001 | TPS 20266.7 | ETA 13:06:42
Time 00:32:51 | Step 43564438 / 1000000001 | TPS 20490.5 | ETA 12:57:57
Time 00:33:01 | Step 43767535 / 1000000001 | TPS 20309.7 | ETA 13:04:42
Time 00:33:11 | Step 43969723 / 1000000001 | TPS 20218.8 | ETA 13:08:04
Time 00:33:21 | Step 44173018 / 1000000001 | TPS 20329.5 | ETA 13:03:36
Time 00:33:31 | Step 44376891 / 1000000001 | TPS 20387.2 | ETA 13:01:13
Time 00:33:41 | Step 44579082 / 1000000001 | TPS 20218.9 | ETA 13:07:33
Time 00:33:51 | Step 44782480 / 1000000001 | TPS 20339.8 | ETA 13:02:43
Time 00:34:01 | Step 44986149 / 1000000001 | TPS 20366.8 | ETA 13:01:30
Time 00:34:11 | Step 45189214 / 1000000001 | TPS 20306.5 | ETA 13:03:39
Time 00:34:21 | Step 45391797 / 1000000001 | TPS 20258.3 | ETA 13:05:21
Time 00:34:31 | Step 45593138 / 1000000001 | TPS 20134 | ETA 13:10:02
Time 00:34:41 | Step 45794653 / 1000000001 | TPS 20151.4 | ETA 13:09:11
Time 00:34:51 | Step 45996531 / 1000000001 | TPS 20187.8 | ETA 13:07:36
Time 00:35:01 | Step 46198223 / 1000000001 | TPS 20169.2 | ETA 13:08:10
Time 00:35:11 | Step 46400476 / 1000000001 | TPS 20225.1 | ETA 13:05:49
Time 00:35:21 | Step 46604451 / 1000000001 | TPS 20397.4 | ETA 12:59:00
Time 00:35:31 | Step 46808167 / 1000000001 | TPS 20371.5 | ETA 12:59:50
Time 00:35:41 | Step 47010870 / 1000000001 | TPS 20270.3 | ETA 13:03:34
Time 00:35:51 | Step 47214698 / 1000000001 | TPS 20382.8 | ETA 12:59:04
Time 00:36:01 | Step 47416893 / 1000000001 | TPS 20219.5 | ETA 13:05:12
Time 00:36:11 | Step 47620704 / 1000000001 | TPS 20381.1 | ETA 12:58:48
Time 00:36:21 | Step 47823909 / 1000000001 | TPS 20320.3 | ETA 13:00:58
Time 00:36:31 | Step 48028617 / 1000000001 | TPS 20470.7 | ETA 12:55:04
Time 00:36:41 | Step 48233110 / 1000000001 | TPS 20449.3 | ETA 12:55:42
Time 00:36:51 | Step 48437546 / 1000000001 | TPS 20443.5 | ETA 12:55:46
Time 00:37:01 | Step 48642441 / 1000000001 | TPS 20489.5 | ETA 12:53:51
Time 00:37:11 | Step 48845432 / 1000000001 | TPS 20299 | ETA 13:00:57
Time 00:37:21 | Step 49047693 / 1000000001 | TPS 20226 | ETA 13:03:36
Time 00:37:31 | Step 49252129 / 1000000001 | TPS 20443.6 | ETA 12:55:05
Time 00:37:41 | Step 49456718 / 1000000001 | TPS 20458.9 | ETA 12:54:21
Time 00:37:51 | Step 49662787 / 1000000001 | TPS 20606.8 | ETA 12:48:37
Time 00:38:01 | Step 49868812 / 1000000001 | TPS 20602.5 | ETA 12:48:37
Time 00:38:11 | Step 50072683 / 1000000001 | TPS 20387.1 | ETA 12:56:34
Time 00:38:21 | Step 50276450 / 1000000001 | TPS 20376.7 | ETA 12:56:48
Time 00:38:31 | Step 50479462 / 1000000001 | TPS 20301.2 | ETA 12:59:31
Time 00:38:41 | Step 50683431 / 1000000001 | TPS 20396.7 | ETA 12:55:42
Time 00:38:51 | Step 50888022 / 1000000001 | TPS 20459 | ETA 12:53:10
Time 00:39:01 | Step 51093766 / 1000000001 | TPS 20574.3 | ETA 12:48:40
Time 00:39:11 | Step 51299141 / 1000000001 | TPS 20537.3 | ETA 12:49:53
Time 00:39:21 | Step 51505472 / 1000000001 | TPS 20633.1 | ETA 12:46:09
Time 00:39:31 | Step 51710087 / 1000000001 | TPS 20461.4 | ETA 12:52:25
Time 00:39:41 | Step 51913769 / 1000000001 | TPS 20368.1 | ETA 12:55:47
Time 00:39:51 | Step 52118120 / 1000000001 | TPS 20435.1 | ETA 12:53:05
Time 00:40:01 | Step 52322490 / 1000000001 | TPS 20437 | ETA 12:52:50
Time 00:40:11 | Step 52525008 / 1000000001 | TPS 20251.8 | ETA 12:59:44
Time 00:40:21 | Step 52729721 / 1000000001 | TPS 20471.3 | ETA 12:51:13
Time 00:40:31 | Step 52934812 / 1000000001 | TPS 20509.1 | ETA 12:49:37
Time 00:40:41 | Step 53138157 / 1000000001 | TPS 20334.4 | ETA 12:56:04
Time 00:40:51 | Step 53341050 / 1000000001 | TPS 20289.1 | ETA 12:57:38
Time 00:41:01 | Step 53544172 / 1000000001 | TPS 20312.1 | ETA 12:56:35
Time 00:41:11 | Step 53748107 / 1000000001 | TPS 20393.4 | ETA 12:53:19
Time 00:41:21 | Step 53952424 / 1000000001 | TPS 20431.7 | ETA 12:51:43
Time 00:41:31 | Step 54155339 / 1000000001 | TPS 20291.5 | ETA 12:56:52
Time 00:41:41 | Step 54359433 / 1000000001 | TPS 20409.3 | ETA 12:52:13
Time 00:41:51 | Step 54563906 / 1000000001 | TPS 20447.3 | ETA 12:50:37
Time 00:42:01 | Step 54767601 / 1000000001 | TPS 20369.5 | ETA 12:53:24
Time 00:42:11 | Step 54969801 / 1000000001 | TPS 20219.9 | ETA 12:58:57
Time 00:42:21 | Step 55172881 / 1000000001 | TPS 20307.9 | ETA 12:55:25
Time 00:42:31 | Step 55377317 / 1000000001 | TPS 20443.6 | ETA 12:50:06
Time 00:42:41 | Step 55581469 / 1000000001 | TPS 20415.2 | ETA 12:51:00
Time 00:42:51 | Step 55786089 / 1000000001 | TPS 20462 | ETA 12:49:04
Time 00:43:01 | Step 55989289 / 1000000001 | TPS 20319.9 | ETA 12:54:17
Time 00:43:11 | Step 56192038 / 1000000001 | TPS 20274.8 | ETA 12:55:50
Time 00:43:21 | Step 56395934 / 1000000001 | TPS 20389.5 | ETA 12:51:18
Time 00:43:31 | Step 56599165 / 1000000001 | TPS 20323.1 | ETA 12:53:40
Time 00:43:41 | Step 56802676 / 1000000001 | TPS 20351.1 | ETA 12:52:26
Time 00:43:51 | Step 57006320 / 1000000001 | TPS 20364.4 | ETA 12:51:46
Time 00:44:01 | Step 57210087 / 1000000001 | TPS 20376.6 | ETA 12:51:08
Time 00:44:11 | Step 57415243 / 1000000001 | TPS 20515.5 | ETA 12:45:44
Time 00:44:21 | Step 57619468 / 1000000001 | TPS 20422.5 | ETA 12:49:04
Time 00:44:31 | Step 57822395 / 1000000001 | TPS 20292.6 | ETA 12:53:49
Time 00:44:41 | Step 58024908 / 1000000001 | TPS 20251.1 | ETA 12:55:14
Time 00:44:51 | Step 58229818 / 1000000001 | TPS 20491 | ETA 12:46:00
Time 00:45:01 | Step 58433061 / 1000000001 | TPS 20324.3 | ETA 12:52:07
Time 00:45:11 | Step 58640723 / 1000000001 | TPS 20766.2 | ETA 12:35:31
Time 00:45:21 | Step 58845499 / 1000000001 | TPS 20477.5 | ETA 12:46:00
Time 00:45:31 | Step 59048480 / 1000000001 | TPS 20298 | ETA 12:52:36
Time 00:45:41 | Step 59251080 / 1000000001 | TPS 20259.8 | ETA 12:53:54
Time 00:45:51 | Step 59453211 / 1000000001 | TPS 20213.1 | ETA 12:55:31
Time 00:46:01 | Step 59656463 / 1000000001 | TPS 20325.1 | ETA 12:51:05
Time 00:46:11 | Step 59861227 / 1000000001 | TPS 20476.3 | ETA 12:45:13
Time 00:46:21 | Step 60065017 / 1000000001 | TPS 20378.9 | ETA 12:48:42
Time 00:46:31 | Step 60268939 / 1000000001 | TPS 20392.2 | ETA 12:48:02
Time 00:46:41 | Step 60472430 / 1000000001 | TPS 20349 | ETA 12:49:30
Time 00:46:51 | Step 60677663 / 1000000001 | TPS 20523.2 | ETA 12:42:48
Time 00:47:01 | Step 60881192 / 1000000001 | TPS 20352.9 | ETA 12:49:01
Time 00:47:11 | Step 61083689 / 1000000001 | TPS 20249.7 | ETA 12:52:47
Time 00:47:21 | Step 61288058 / 1000000001 | TPS 20436.8 | ETA 12:45:32
Time 00:47:31 | Step 61491064 / 1000000001 | TPS 20300.6 | ETA 12:50:30
Time 00:47:41 | Step 61694918 / 1000000001 | TPS 20385.3 | ETA 12:47:08
Time 00:47:51 | Step 61899524 / 1000000001 | TPS 20460.5 | ETA 12:44:09
Time 00:48:01 | Step 62103757 / 1000000001 | TPS 20423.2 | ETA 12:45:23
Time 00:48:11 | Step 62308075 / 1000000001 | TPS 20431.8 | ETA 12:44:53
Time 00:48:21 | Step 62512773 / 1000000001 | TPS 20469.7 | ETA 12:43:18
Time 00:48:31 | Step 62715772 / 1000000001 | TPS 20299.9 | ETA 12:49:31
Time 00:48:41 | Step 62919657 / 1000000001 | TPS 20388.5 | ETA 12:46:01
Time 00:48:51 | Step 63123578 / 1000000001 | TPS 20392.1 | ETA 12:45:43
Time 00:49:01 | Step 63327601 / 1000000001 | TPS 20402.3 | ETA 12:45:10
Time 00:49:11 | Step 63531363 / 1000000001 | TPS 20376.2 | ETA 12:45:59
Time 00:49:21 | Step 63735426 / 1000000001 | TPS 20406.3 | ETA 12:44:41
Time 00:49:31 | Step 63939176 / 1000000001 | TPS 20375 | ETA 12:45:41
Time 00:49:41 | Step 64143011 / 1000000001 | TPS 20383.4 | ETA 12:45:12
Time 00:49:51 | Step 64348197 / 1000000001 | TPS 20518.6 | ETA 12:40:00
Time 00:50:01 | Step 64552789 / 1000000001 | TPS 20459.1 | ETA 12:42:02
Time 00:50:11 | Step 64755673 / 1000000001 | TPS 20288.3 | ETA 12:48:17
Time 00:50:21 | Step 64958842 / 1000000001 | TPS 20316.8 | ETA 12:47:02
Time 00:50:31 | Step 65162554 / 1000000001 | TPS 20371.2 | ETA 12:44:50
Time 00:50:41 | Step 65366444 / 1000000001 | TPS 20389 | ETA 12:44:00
Time 00:50:51 | Step 65569865 / 1000000001 | TPS 20342 | ETA 12:45:35
Time 00:51:01 | Step 65773635 / 1000000001 | TPS 20376.9 | ETA 12:44:07
Time 00:51:11 | Step 65977188 / 1000000001 | TPS 20355.3 | ETA 12:44:46
Time 00:51:21 | Step 66180951 / 1000000001 | TPS 20376.3 | ETA 12:43:48
Time 00:51:31 | Step 66385278 / 1000000001 | TPS 20432.7 | ETA 12:41:32
Time 00:51:41 | Step 66589529 / 1000000001 | TPS 20425 | ETA 12:41:39
Time 00:51:51 | Step 66795009 / 1000000001 | TPS 20547.9 | ETA 12:36:56
Time 00:52:01 | Step 66998261 / 1000000001 | TPS 20325.2 | ETA 12:45:03
Time 00:52:11 | Step 67201351 / 1000000001 | TPS 20309 | ETA 12:45:30
Time 00:52:21 | Step 67404433 / 1000000001 | TPS 20308.2 | ETA 12:45:22
Time 00:52:31 | Step 67608150 / 1000000001 | TPS 20371.6 | ETA 12:42:49
Time 00:52:41 | Step 67812298 / 1000000001 | TPS 20414.8 | ETA 12:41:02
Time 00:52:51 | Step 68016963 / 1000000001 | TPS 20466.4 | ETA 12:38:57
Time 00:53:01 | Step 68222086 / 1000000001 | TPS 20512.3 | ETA 12:37:05
Time 00:53:11 | Step 68426823 / 1000000001 | TPS 20473.5 | ETA 12:38:21
Time 00:53:21 | Step 68633520 / 1000000001 | TPS 20669.7 | ETA 12:30:59
Time 00:53:31 | Step 68841044 / 1000000001 | TPS 20752.4 | ETA 12:27:50
Time 00:53:41 | Step 69044500 / 1000000001 | TPS 20345.6 | ETA 12:42:37
Time 00:53:51 | Step 69248144 / 1000000001 | TPS 20364.3 | ETA 12:41:45
Time 00:54:01 | Step 69451706 / 1000000001 | TPS 20356.2 | ETA 12:41:53
Time 00:54:11 | Step 69654309 / 1000000001 | TPS 20260.3 | ETA 12:45:19
Time 00:54:21 | Step 69857468 / 1000000001 | TPS 20315.9 | ETA 12:43:03
Time 00:54:31 | Step 70060797 / 1000000001 | TPS 20332.9 | ETA 12:42:15
Time 00:54:41 | Step 70264510 / 1000000001 | TPS 20371.1 | ETA 12:40:39
Time 00:54:51 | Step 70471210 / 1000000001 | TPS 20670 | ETA 12:29:30
Time 00:55:01 | Step 70676008 / 1000000001 | TPS 20479.8 | ETA 12:36:17
Time 00:55:11 | Step 70879031 / 1000000001 | TPS 20302.3 | ETA 12:42:44
Time 00:55:21 | Step 71082764 / 1000000001 | TPS 20373.2 | ETA 12:39:55
Time 00:55:31 | Step 71286093 / 1000000001 | TPS 20332.9 | ETA 12:41:15
Time 00:55:41 | Step 71488986 / 1000000001 | TPS 20289.2 | ETA 12:42:43
Time 00:55:51 | Step 71692008 / 1000000001 | TPS 20302.1 | ETA 12:42:04
Time 00:56:01 | Step 71894925 / 1000000001 | TPS 20291.7 | ETA 12:42:18
Time 00:56:11 | Step 72098452 / 1000000001 | TPS 20352.7 | ETA 12:39:51
Time 00:56:21 | Step 72301813 / 1000000001 | TPS 20336.1 | ETA 12:40:18
Time 00:56:31 | Step 72504447 / 1000000001 | TPS 20263.4 | ETA 12:42:52
Time 00:56:41 | Step 72707221 / 1000000001 | TPS 20277.3 | ETA 12:42:10
Time 00:56:51 | Step 72909777 / 1000000001 | TPS 20255.4 | ETA 12:42:49
Time 00:57:01 | Step 73114235 / 1000000001 | TPS 20445.8 | ETA 12:35:33
Time 00:57:11 | Step 73322560 / 1000000001 | TPS 20832.5 | ETA 12:21:22
Time 00:57:21 | Step 73530144 / 1000000001 | TPS 20758.3 | ETA 12:23:51
Time 00:57:31 | Step 73735578 / 1000000001 | TPS 20543.2 | ETA 12:31:28
Time 00:57:41 | Step 73940774 / 1000000001 | TPS 20519.4 | ETA 12:32:10
Time 00:57:51 | Step 74147592 / 1000000001 | TPS 20681.8 | ETA 12:26:06
Time 00:58:01 | Step 74352759 / 1000000001 | TPS 20516.5 | ETA 12:31:57
Time 00:58:11 | Step 74557218 / 1000000001 | TPS 20445.9 | ETA 12:34:23
Time 00:58:21 | Step 74761194 / 1000000001 | TPS 20397.5 | ETA 12:36:00
Time 00:58:31 | Step 74964821 / 1000000001 | TPS 20362.7 | ETA 12:37:07
Time 00:58:41 | Step 75169929 / 1000000001 | TPS 20510.7 | ETA 12:31:30
Time 00:58:51 | Step 75373408 / 1000000001 | TPS 20347.8 | ETA 12:37:21
Time 00:59:01 | Step 75576700 / 1000000001 | TPS 20329.1 | ETA 12:37:52
Time 00:59:11 | Step 75780730 / 1000000001 | TPS 20403 | ETA 12:34:58
Time 00:59:21 | Step 75985243 / 1000000001 | TPS 20451.3 | ETA 12:33:01
Time 00:59:31 | Step 76189244 / 1000000001 | TPS 20400.1 | ETA 12:34:44
Time 00:59:41 | Step 76394780 / 1000000001 | TPS 20553.6 | ETA 12:28:56
Time 00:59:51 | Step 76602003 / 1000000001 | TPS 20722.3 | ETA 12:22:40
Time 01:00:01 | Step 76807734 / 1000000001 | TPS 20573.1 | ETA 12:27:53
Time 01:00:11 | Step 77011480 / 1000000001 | TPS 20374.6 | ETA 12:35:01
Time 01:00:21 | Step 77218160 / 1000000001 | TPS 20667.9 | ETA 12:24:08
Time 01:00:31 | Step 77424825 / 1000000001 | TPS 20666.4 | ETA 12:24:01
Time 01:00:41 | Step 77629423 / 1000000001 | TPS 20459.8 | ETA 12:31:22
Time 01:00:51 | Step 77833656 / 1000000001 | TPS 20423.2 | ETA 12:32:32
Time 01:01:01 | Step 78040397 / 1000000001 | TPS 20674.1 | ETA 12:23:14
Time 01:01:11 | Step 78243437 / 1000000001 | TPS 20303.9 | ETA 12:36:38
Time 01:01:21 | Step 78448331 / 1000000001 | TPS 20489.3 | ETA 12:29:37
Time 01:01:31 | Step 78652668 / 1000000001 | TPS 20433.7 | ETA 12:31:29
Time 01:01:41 | Step 78857355 / 1000000001 | TPS 20468.6 | ETA 12:30:02
Time 01:01:51 | Step 79060524 / 1000000001 | TPS 20316.8 | ETA 12:35:28
Time 01:02:01 | Step 79263101 / 1000000001 | TPS 20257.7 | ETA 12:37:31
Time 01:02:11 | Step 79465844 / 1000000001 | TPS 20274.2 | ETA 12:36:44
Time 01:02:21 | Step 79670067 / 1000000001 | TPS 20422.2 | ETA 12:31:05
Time 01:02:31 | Step 79874082 / 1000000001 | TPS 20401.5 | ETA 12:31:40
Time 01:02:41 | Step 80078183 / 1000000001 | TPS 20410.1 | ETA 12:31:11
Time 01:02:51 | Step 80281817 / 1000000001 | TPS 20363.4 | ETA 12:32:45
Time 01:03:01 | Step 80485518 / 1000000001 | TPS 20370 | ETA 12:32:20
Time 01:03:11 | Step 80690577 / 1000000001 | TPS 20505.9 | ETA 12:27:11
Time 01:03:21 | Step 80895985 / 1000000001 | TPS 20540.8 | ETA 12:25:45
Time 01:03:31 | Step 81100367 / 1000000001 | TPS 20438.2 | ETA 12:29:20
Time 01:03:41 | Step 81304473 / 1000000001 | TPS 20410.6 | ETA 12:30:10
Time 01:03:51 | Step 81507375 / 1000000001 | TPS 20290.1 | ETA 12:34:27
Time 01:04:01 | Step 81711698 / 1000000001 | TPS 20432.3 | ETA 12:29:03
Time 01:04:11 | Step 81916033 / 1000000001 | TPS 20433.5 | ETA 12:28:50
Time 01:04:21 | Step 82119430 / 1000000001 | TPS 20339.6 | ETA 12:32:07
Time 01:04:31 | Step 82323506 / 1000000001 | TPS 20407.5 | ETA 12:29:27
Time 01:04:41 | Step 82527609 / 1000000001 | TPS 20410.2 | ETA 12:29:11
Time 01:04:51 | Step 82732117 / 1000000001 | TPS 20450.7 | ETA 12:27:32
Time 01:05:01 | Step 82936509 / 1000000001 | TPS 20439.1 | ETA 12:27:48
Time 01:05:11 | Step 83141156 / 1000000001 | TPS 20464.7 | ETA 12:26:41
Time 01:05:21 | Step 83344595 / 1000000001 | TPS 20343.9 | ETA 12:30:58
Time 01:05:31 | Step 83547427 / 1000000001 | TPS 20283.1 | ETA 12:33:03
Time 01:05:41 | Step 83751753 / 1000000001 | TPS 20432.5 | ETA 12:27:22
Time 01:05:51 | Step 83956678 / 1000000001 | TPS 20492.4 | ETA 12:25:01
Time 01:06:01 | Step 84159927 / 1000000001 | TPS 20324.9 | ETA 12:31:00
Time 01:06:11 | Step 84362991 / 1000000001 | TPS 20306.4 | ETA 12:31:31
Time 01:06:21 | Step 84567480 / 1000000001 | TPS 20448.9 | ETA 12:26:06
Time 01:06:31 | Step 84771745 / 1000000001 | TPS 20426.5 | ETA 12:26:45
Time 01:06:41 | Step 84975194 / 1000000001 | TPS 20344.9 | ETA 12:29:35
Time 01:06:51 | Step 85178253 / 1000000001 | TPS 20305.9 | ETA 12:30:52
Time 01:07:01 | Step 85382053 / 1000000001 | TPS 20379.8 | ETA 12:27:58
Time 01:07:11 | Step 85588313 / 1000000001 | TPS 20626 | ETA 12:18:52
Time 01:07:21 | Step 85794973 / 1000000001 | TPS 20665.8 | ETA 12:17:17
Time 01:07:31 | Step 85999795 / 1000000001 | TPS 20482.2 | ETA 12:23:44
Time 01:07:41 | Step 86203689 / 1000000001 | TPS 20389.4 | ETA 12:26:57
Time 01:07:51 | Step 86407367 / 1000000001 | TPS 20367.7 | ETA 12:27:34
Time 01:08:01 | Step 86612680 / 1000000001 | TPS 20531.3 | ETA 12:21:27
Time 01:08:11 | Step 86817055 / 1000000001 | TPS 20437.4 | ETA 12:24:41
Time 01:08:21 | Step 87021939 / 1000000001 | TPS 20488.3 | ETA 12:22:40
Time 01:08:31 | Step 87228458 / 1000000001 | TPS 20651.8 | ETA 12:16:38
Time 01:08:41 | Step 87435086 / 1000000001 | TPS 20662.8 | ETA 12:16:04
Time 01:08:51 | Step 87640962 / 1000000001 | TPS 20587.5 | ETA 12:18:36
Time 01:09:01 | Step 87847078 / 1000000001 | TPS 20611.4 | ETA 12:17:34
Time 01:09:11 | Step 88051309 / 1000000001 | TPS 20423.1 | ETA 12:24:12
Time 01:09:21 | Step 88256514 / 1000000001 | TPS 20520.4 | ETA 12:20:31
Time 01:09:31 | Step 88461346 / 1000000001 | TPS 20483.2 | ETA 12:21:41
Time 01:09:41 | Step 88665857 / 1000000001 | TPS 20450.9 | ETA 12:22:41
Time 01:09:51 | Step 88869835 / 1000000001 | TPS 20397.7 | ETA 12:24:28
Time 01:10:01 | Step 89074329 / 1000000001 | TPS 20449.4 | ETA 12:22:25
Time 01:10:11 | Step 89278501 / 1000000001 | TPS 20417 | ETA 12:23:26
Time 01:10:21 | Step 89483508 / 1000000001 | TPS 20500.6 | ETA 12:20:14
Time 01:10:31 | Step 89687597 / 1000000001 | TPS 20408.9 | ETA 12:23:23
Time 01:10:41 | Step 89891597 / 1000000001 | TPS 20400 | ETA 12:23:33
Time 01:10:51 | Step 90097895 / 1000000001 | TPS 20629.8 | ETA 12:15:06
Time 01:11:01 | Step 90302803 / 1000000001 | TPS 20490.6 | ETA 12:19:55
Time 01:11:11 | Step 90508038 / 1000000001 | TPS 20523.5 | ETA 12:18:34
Time 01:11:21 | Step 90713666 / 1000000001 | TPS 20562.8 | ETA 12:16:59
Time 01:11:31 | Step 90918946 / 1000000001 | TPS 20528 | ETA 12:18:05
Time 01:11:41 | Step 91122735 / 1000000001 | TPS 20378.9 | ETA 12:23:18
Time 01:11:51 | Step 91326077 / 1000000001 | TPS 20334.2 | ETA 12:24:47
Time 01:12:01 | Step 91532306 / 1000000001 | TPS 20622.7 | ETA 12:14:11
Time 01:12:11 | Step 91736479 / 1000000001 | TPS 20417.3 | ETA 12:21:25
Time 01:12:21 | Step 91944539 / 1000000001 | TPS 20806 | ETA 12:07:24
Time 01:12:31 | Step 92151726 / 1000000001 | TPS 20718.7 | ETA 12:10:17
Time 01:12:41 | Step 92357374 / 1000000001 | TPS 20564.8 | ETA 12:15:35
Time 01:12:51 | Step 92564355 / 1000000001 | TPS 20698.1 | ETA 12:10:41
Time 01:13:01 | Step 92770118 / 1000000001 | TPS 20576.1 | ETA 12:14:51
Time 01:13:11 | Step 92975164 / 1000000001 | TPS 20504.6 | ETA 12:17:15
Time 01:13:21 | Step 93181976 / 1000000001 | TPS 20681.1 | ETA 12:10:47
Time 01:13:31 | Step 93387980 / 1000000001 | TPS 20600.4 | ETA 12:13:29
Time 01:13:41 | Step 93595416 / 1000000001 | TPS 20743.6 | ETA 12:08:15
Time 01:13:51 | Step 93801687 / 1000000001 | TPS 20627 | ETA 12:12:12
Time 01:14:01 | Step 94004006 / 1000000001 | TPS 20231.8 | ETA 12:26:20
Time 01:14:11 | Step 94209389 / 1000000001 | TPS 20538.2 | ETA 12:15:02
Time 01:14:21 | Step 94415830 / 1000000001 | TPS 20644 | ETA 12:11:06
Time 01:14:31 | Step 94618945 / 1000000001 | TPS 20311.5 | ETA 12:22:54
Time 01:14:41 | Step 94822225 / 1000000001 | TPS 20327.8 | ETA 12:22:09
Time 01:14:51 | Step 95024700 / 1000000001 | TPS 20247.4 | ETA 12:24:55
Time 01:15:01 | Step 95227598 / 1000000001 | TPS 20289.8 | ETA 12:23:12
Time 01:15:11 | Step 95431417 / 1000000001 | TPS 20381.8 | ETA 12:19:41
Time 01:15:21 | Step 95634667 / 1000000001 | TPS 20325 | ETA 12:21:35
Time 01:15:31 | Step 95837703 / 1000000001 | TPS 20303.6 | ETA 12:22:12
Time 01:15:41 | Step 96041385 / 1000000001 | TPS 20368.1 | ETA 12:19:41
Time 01:15:51 | Step 96245323 / 1000000001 | TPS 20393.8 | ETA 12:18:35
Time 01:16:01 | Step 96448766 / 1000000001 | TPS 20344.3 | ETA 12:20:13
Time 01:16:11 | Step 96654326 / 1000000001 | TPS 20556 | ETA 12:12:25
Time 01:16:21 | Step 96860899 / 1000000001 | TPS 20657.3 | ETA 12:08:40
Time 01:16:31 | Step 97066284 / 1000000001 | TPS 20538.5 | ETA 12:12:43
Time 01:16:41 | Step 97273328 / 1000000001 | TPS 20704.4 | ETA 12:06:40
Time 01:16:51 | Step 97485570 / 1000000001 | TPS 21224.1 | ETA 11:48:43
Time 01:17:01 | Step 97695249 / 1000000001 | TPS 20967.9 | ETA 11:57:12
Time 01:17:11 | Step 97899099 / 1000000001 | TPS 20385 | ETA 12:17:33
Time 01:17:21 | Step 98103114 / 1000000001 | TPS 20401.5 | ETA 12:16:47
Time 01:17:31 | Step 98306563 / 1000000001 | TPS 20344.8 | ETA 12:18:40
Time 01:17:41 | Step 98510229 / 1000000001 | TPS 20366.6 | ETA 12:17:43
Time 01:17:51 | Step 98715289 / 1000000001 | TPS 20505.9 | ETA 12:12:32
Time 01:18:01 | Step 98918750 / 1000000001 | TPS 20346 | ETA 12:18:07
Time 01:18:11 | Step 99122397 / 1000000001 | TPS 20364.7 | ETA 12:17:17
Time 01:18:21 | Step 99326271 / 1000000001 | TPS 20387.4 | ETA 12:16:17
Time 01:18:31 | Step 99531819 / 1000000001 | TPS 20554.8 | ETA 12:10:08
Time 01:18:41 | Step 99736066 / 1000000001 | TPS 20424.6 | ETA 12:14:37
Time 01:18:51 | Step 99940473 / 1000000001 | TPS 20440.7 | ETA 12:13:52
Time 01:19:01 | Step 100145428 / 1000000001 | TPS 20495.5 | ETA 12:11:45
Time 01:19:11 | Step 100350910 / 1000000001 | TPS 20548.2 | ETA 12:09:42
Time 01:19:21 | Step 100555233 / 1000000001 | TPS 20432.2 | ETA 12:13:40
Time 01:19:31 | Step 100758728 / 1000000001 | TPS 20349.4 | ETA 12:16:30
Time 01:19:41 | Step 100964443 / 1000000001 | TPS 20571.5 | ETA 12:08:22
Time 01:19:51 | Step 101169271 / 1000000001 | TPS 20482.7 | ETA 12:11:22
Time 01:20:01 | Step 101373187 / 1000000001 | TPS 20391.6 | ETA 12:14:28
Time 01:20:11 | Step 101577038 / 1000000001 | TPS 20385 | ETA 12:14:32
Time 01:20:21 | Step 101781922 / 1000000001 | TPS 20488.3 | ETA 12:10:40
Time 01:20:31 | Step 101986092 / 1000000001 | TPS 20416.9 | ETA 12:13:03
Time 01:20:41 | Step 102192284 / 1000000001 | TPS 20619.1 | ETA 12:05:42
Time 01:20:51 | Step 102397354 / 1000000001 | TPS 20506.9 | ETA 12:09:30
Time 01:21:01 | Step 102603359 / 1000000001 | TPS 20600.5 | ETA 12:06:01
Time 01:21:11 | Step 102809465 / 1000000001 | TPS 20610.4 | ETA 12:05:30
Time 01:21:21 | Step 103013355 / 1000000001 | TPS 20389 | ETA 12:13:13
Time 01:21:31 | Step 103217446 / 1000000001 | TPS 20409.1 | ETA 12:12:20
Time 01:21:41 | Step 103423351 / 1000000001 | TPS 20590.5 | ETA 12:05:43
Time 01:21:51 | Step 103630927 / 1000000001 | TPS 20757.6 | ETA 11:59:42
Time 01:22:01 | Step 103835765 / 1000000001 | TPS 20483.6 | ETA 12:09:10
Time 01:22:11 | Step 104039276 / 1000000001 | TPS 20351.1 | ETA 12:13:45
Time 01:22:21 | Step 104245242 / 1000000001 | TPS 20596.6 | ETA 12:04:50
Time 01:22:31 | Step 104450898 / 1000000001 | TPS 20565.6 | ETA 12:05:45
Time 01:22:41 | Step 104656635 / 1000000001 | TPS 20573.6 | ETA 12:05:18
Time 01:22:51 | Step 104861100 / 1000000001 | TPS 20446.5 | ETA 12:09:39
Time 01:23:01 | Step 105065213 / 1000000001 | TPS 20411.3 | ETA 12:10:45
Time 01:23:11 | Step 105268893 / 1000000001 | TPS 20367.9 | ETA 12:12:08
Time 01:23:21 | Step 105471494 / 1000000001 | TPS 20260.1 | ETA 12:15:52
Time 01:23:31 | Step 105676379 / 1000000001 | TPS 20488.5 | ETA 12:07:30
Time 01:23:41 | Step 105881544 / 1000000001 | TPS 20516.5 | ETA 12:06:20
Time 01:23:51 | Step 106085257 / 1000000001 | TPS 20371.3 | ETA 12:11:21
Time 01:24:01 | Step 106289713 / 1000000001 | TPS 20445.5 | ETA 12:08:31
Time 01:24:11 | Step 106496425 / 1000000001 | TPS 20671 | ETA 12:00:24
Time 01:24:21 | Step 106704514 / 1000000001 | TPS 20808.9 | ETA 11:55:28
Time 01:24:31 | Step 106912431 / 1000000001 | TPS 20791.7 | ETA 11:55:54
Time 01:24:41 | Step 107120101 / 1000000001 | TPS 20766.8 | ETA 11:56:35
Time 01:24:51 | Step 107327411 / 1000000001 | TPS 20731 | ETA 11:57:39
Time 01:25:01 | Step 107535892 / 1000000001 | TPS 20848 | ETA 11:53:28
Time 01:25:11 | Step 107741202 / 1000000001 | TPS 20531 | ETA 12:04:19
Time 01:25:21 | Step 107948416 / 1000000001 | TPS 20721.3 | ETA 11:57:29
Time 01:25:31 | Step 108153030 / 1000000001 | TPS 20461.4 | ETA 12:06:26
Time 01:25:41 | Step 108357401 / 1000000001 | TPS 20436.9 | ETA 12:07:09
Time 01:25:51 | Step 108561135 / 1000000001 | TPS 20373.3 | ETA 12:09:15
Time 01:26:01 | Step 108766708 / 1000000001 | TPS 20557.3 | ETA 12:02:33
Time 01:26:11 | Step 108971792 / 1000000001 | TPS 20508.4 | ETA 12:04:07
Time 01:26:21 | Step 109177298 / 1000000001 | TPS 20550.6 | ETA 12:02:27
Time 01:26:31 | Step 109381703 / 1000000001 | TPS 20440.5 | ETA 12:06:11
Time 01:26:41 | Step 109585955 / 1000000001 | TPS 20425.2 | ETA 12:06:34
Time 01:26:51 | Step 109790004 / 1000000001 | TPS 20404.8 | ETA 12:07:07
Time 01:27:01 | Step 109994959 / 1000000001 | TPS 20495.4 | ETA 12:03:44
Time 01:27:11 | Step 110200151 / 1000000001 | TPS 20519.1 | ETA 12:02:44
Time 01:27:21 | Step 110403853 / 1000000001 | TPS 20370.1 | ETA 12:07:51
Time 01:27:31 | Step 110610226 / 1000000001 | TPS 20637.2 | ETA 11:58:16
Time 01:27:41 | Step 110817167 / 1000000001 | TPS 20694 | ETA 11:56:08
Time 01:27:51 | Step 111023608 / 1000000001 | TPS 20644 | ETA 11:57:42
Time 01:28:01 | Step 111231911 / 1000000001 | TPS 20830.3 | ETA 11:51:07
Time 01:28:11 | Step 111437732 / 1000000001 | TPS 20582.1 | ETA 11:59:31
Time 01:28:21 | Step 111645168 / 1000000001 | TPS 20743.6 | ETA 11:53:45
Time 01:28:31 | Step 111850830 / 1000000001 | TPS 20566.2 | ETA 11:59:44
Time 01:28:41 | Step 112055298 / 1000000001 | TPS 20446.8 | ETA 12:03:47
Time 01:28:51 | Step 112261842 / 1000000001 | TPS 20654.4 | ETA 11:56:20
Time 01:29:01 | Step 112467347 / 1000000001 | TPS 20550.5 | ETA 11:59:47
Time 01:29:11 | Step 112673410 / 1000000001 | TPS 20606.2 | ETA 11:57:41
Time 01:29:21 | Step 112879020 / 1000000001 | TPS 20561 | ETA 11:59:05
Time 01:29:31 | Step 113084444 / 1000000001 | TPS 20542.4 | ETA 11:59:34
Time 01:29:41 | Step 113294780 / 1000000001 | TPS 21033.6 | ETA 11:42:36
Time 01:29:51 | Step 113501874 / 1000000001 | TPS 20709.4 | ETA 11:53:26
Time 01:30:01 | Step 113711598 / 1000000001 | TPS 20972.3 | ETA 11:44:19
Time 01:30:11 | Step 113919885 / 1000000001 | TPS 20828.6 | ETA 11:49:01
Time 01:30:21 | Step 114128111 / 1000000001 | TPS 20822.6 | ETA 11:49:03
Time 01:30:31 | Step 114335792 / 1000000001 | TPS 20768 | ETA 11:50:45
Time 01:30:41 | Step 114542400 / 1000000001 | TPS 20660.8 | ETA 11:54:16
Time 01:30:51 | Step 114748498 / 1000000001 | TPS 20609.7 | ETA 11:55:53
Time 01:31:01 | Step 114956103 / 1000000001 | TPS 20760.5 | ETA 11:50:31
Time 01:31:11 | Step 115164161 / 1000000001 | TPS 20805.7 | ETA 11:48:48
Time 01:31:21 | Step 115369154 / 1000000001 | TPS 20499.2 | ETA 11:59:14
Time 01:31:31 | Step 115573696 / 1000000001 | TPS 20454.1 | ETA 12:00:39
Time 01:31:41 | Step 115778848 / 1000000001 | TPS 20515.2 | ETA 11:58:20
Time 01:31:51 | Step 115985898 / 1000000001 | TPS 20704.9 | ETA 11:51:35
Time 01:32:01 | Step 116193794 / 1000000001 | TPS 20789.5 | ETA 11:48:32
Time 01:32:11 | Step 116403306 / 1000000001 | TPS 20951.1 | ETA 11:42:54
Time 01:32:21 | Step 116612664 / 1000000001 | TPS 20935.8 | ETA 11:43:15
Time 01:32:31 | Step 116821287 / 1000000001 | TPS 20862.3 | ETA 11:45:33
Time 01:32:41 | Step 117027621 / 1000000001 | TPS 20633.4 | ETA 11:53:13
Time 01:32:51 | Step 117234764 / 1000000001 | TPS 20714.3 | ETA 11:50:16
Time 01:33:01 | Step 117439375 / 1000000001 | TPS 20461 | ETA 11:58:53
Time 01:33:11 | Step 117645830 / 1000000001 | TPS 20645.5 | ETA 11:52:18
Time 01:33:21 | Step 117854004 / 1000000001 | TPS 20817.3 | ETA 11:46:15
Time 01:33:31 | Step 118060928 / 1000000001 | TPS 20692.3 | ETA 11:50:21
Time 01:33:41 | Step 118267400 / 1000000001 | TPS 20647.2 | ETA 11:51:44
Time 01:33:51 | Step 118472940 / 1000000001 | TPS 20553.9 | ETA 11:54:48
Time 01:34:01 | Step 118680082 / 1000000001 | TPS 20714 | ETA 11:49:07
Time 01:34:11 | Step 118886288 / 1000000001 | TPS 20620.6 | ETA 11:52:09
Time 01:34:21 | Step 119089623 / 1000000001 | TPS 20333.4 | ETA 12:02:03
Time 01:34:31 | Step 119294357 / 1000000001 | TPS 20473.4 | ETA 11:56:57
Time 01:34:41 | Step 119502956 / 1000000001 | TPS 20859.8 | ETA 11:43:30
Time 01:34:51 | Step 119711104 / 1000000001 | TPS 20814.7 | ETA 11:44:51
Time 01:35:01 | Step 119921202 / 1000000001 | TPS 21009.8 | ETA 11:38:09
Time 01:35:11 | Step 120131286 / 1000000001 | TPS 21008.3 | ETA 11:38:01
Time 01:35:21 | Step 120336670 / 1000000001 | TPS 20538.3 | ETA 11:53:50
Time 01:35:31 | Step 120544865 / 1000000001 | TPS 20819.4 | ETA 11:44:02
Time 01:35:41 | Step 120749601 / 1000000001 | TPS 20473.5 | ETA 11:55:45
Time 01:35:51 | Step 120955237 / 1000000001 | TPS 20563.6 | ETA 11:52:27
Time 01:36:01 | Step 121161673 / 1000000001 | TPS 20643.6 | ETA 11:49:32
Time 01:36:11 | Step 121367130 / 1000000001 | TPS 20545.6 | ETA 11:52:44
Time 01:36:21 | Step 121574673 / 1000000001 | TPS 20754.3 | ETA 11:45:25
Time 01:36:31 | Step 121780188 / 1000000001 | TPS 20551.3 | ETA 11:52:12
Time 01:36:41 | Step 121984329 / 1000000001 | TPS 20414 | ETA 11:56:50
Time 01:36:51 | Step 122187885 / 1000000001 | TPS 20355.6 | ETA 11:58:43
Time 01:37:01 | Step 122391226 / 1000000001 | TPS 20334.1 | ETA 11:59:19
Time 01:37:11 | Step 122594937 / 1000000001 | TPS 20371 | ETA 11:57:51
Time 01:37:21 | Step 122797680 / 1000000001 | TPS 20274.3 | ETA 12:01:06
Time 01:37:31 | Step 123000925 / 1000000001 | TPS 20324.4 | ETA 11:59:10
Time 01:37:41 | Step 123203529 / 1000000001 | TPS 20260.3 | ETA 12:01:16
Time 01:37:51 | Step 123405972 / 1000000001 | TPS 20244.3 | ETA 12:01:40
Time 01:38:01 | Step 123610736 / 1000000001 | TPS 20476.4 | ETA 11:53:20
Time 01:38:11 | Step 123815103 / 1000000001 | TPS 20436.7 | ETA 11:54:33
Time 01:38:21 | Step 124018840 / 1000000001 | TPS 20373.7 | ETA 11:56:35
Time 01:38:31 | Step 124223764 / 1000000001 | TPS 20492.4 | ETA 11:52:16
Time 01:38:41 | Step 124428373 / 1000000001 | TPS 20460.9 | ETA 11:53:12
Time 01:38:51 | Step 124635194 / 1000000001 | TPS 20682.1 | ETA 11:45:24
Time 01:39:01 | Step 124839026 / 1000000001 | TPS 20383.1 | ETA 11:55:35
Time 01:39:11 | Step 125042197 / 1000000001 | TPS 20317.1 | ETA 11:57:45
Time 01:39:21 | Step 125246942 / 1000000001 | TPS 20474.4 | ETA 11:52:04
Time 01:39:31 | Step 125451459 / 1000000001 | TPS 20451.7 | ETA 11:52:41
Time 01:39:41 | Step 125656728 / 1000000001 | TPS 20526.9 | ETA 11:49:55
Time 01:39:51 | Step 125860975 / 1000000001 | TPS 20424.7 | ETA 11:53:18
Time 01:40:01 | Step 126064678 / 1000000001 | TPS 20370.2 | ETA 11:55:02
Time 01:40:11 | Step 126267168 / 1000000001 | TPS 20249 | ETA 11:59:09
Time 01:40:21 | Step 126471254 / 1000000001 | TPS 20408.5 | ETA 11:53:22
Time 01:40:31 | Step 126675371 / 1000000001 | TPS 20411.7 | ETA 11:53:05
Time 01:40:41 | Step 126878936 / 1000000001 | TPS 20356.5 | ETA 11:54:51
Time 01:40:51 | Step 127081975 / 1000000001 | TPS 20303.9 | ETA 11:56:32
Time 01:41:01 | Step 127286085 / 1000000001 | TPS 20410.9 | ETA 11:52:37
Time 01:41:11 | Step 127490086 / 1000000001 | TPS 20400 | ETA 11:52:50
Time 01:41:21 | Step 127693971 / 1000000001 | TPS 20388.5 | ETA 11:53:04
Time 01:41:31 | Step 127899112 / 1000000001 | TPS 20514 | ETA 11:48:32
Time 01:41:41 | Step 128104271 / 1000000001 | TPS 20515.9 | ETA 11:48:18
Time 01:41:51 | Step 128308482 / 1000000001 | TPS 20421.1 | ETA 11:51:25
Time 01:42:01 | Step 128512066 / 1000000001 | TPS 20358.2 | ETA 11:53:27
Time 01:42:11 | Step 128715601 / 1000000001 | TPS 20353.4 | ETA 11:53:27
Time 01:42:21 | Step 128920012 / 1000000001 | TPS 20441 | ETA 11:50:14
Time 01:42:31 | Step 129123504 / 1000000001 | TPS 20349.2 | ETA 11:53:16
Time 01:42:41 | Step 129327563 / 1000000001 | TPS 20405.8 | ETA 11:51:07
Time 01:42:51 | Step 129533289 / 1000000001 | TPS 20572.5 | ETA 11:45:12
Time 01:43:01 | Step 129736886 / 1000000001 | TPS 20359.6 | ETA 11:52:24
Time 01:43:11 | Step 129940285 / 1000000001 | TPS 20339.9 | ETA 11:52:56
Time 01:43:21 | Step 130143939 / 1000000001 | TPS 20365.4 | ETA 11:51:52
Time 01:43:31 | Step 130349173 / 1000000001 | TPS 20523.4 | ETA 11:46:13
Time 01:43:41 | Step 130552194 / 1000000001 | TPS 20302 | ETA 11:53:45
Time 01:43:51 | Step 130754821 / 1000000001 | TPS 20262.6 | ETA 11:54:58
Time 01:44:01 | Step 130959168 / 1000000001 | TPS 20434.6 | ETA 11:48:47
Time 01:44:11 | Step 131162527 / 1000000001 | TPS 20335.8 | ETA 11:52:04
Time 01:44:21 | Step 131366877 / 1000000001 | TPS 20434.9 | ETA 11:48:27
Time 01:44:31 | Step 131570504 / 1000000001 | TPS 20362.7 | ETA 11:50:48
Time 01:44:41 | Step 131774120 / 1000000001 | TPS 20361.5 | ETA 11:50:40
Time 01:44:51 | Step 131977648 / 1000000001 | TPS 20352.7 | ETA 11:50:48
Time 01:45:01 | Step 132181376 / 1000000001 | TPS 20372.8 | ETA 11:49:56
Time 01:45:11 | Step 132387557 / 1000000001 | TPS 20617.9 | ETA 11:41:20
Time 01:45:21 | Step 132594420 / 1000000001 | TPS 20686.2 | ETA 11:38:51
Time 01:45:31 | Step 132798891 / 1000000001 | TPS 20447.1 | ETA 11:46:51
Time 01:45:41 | Step 133003127 / 1000000001 | TPS 20423.5 | ETA 11:47:30
Time 01:45:51 | Step 133209857 / 1000000001 | TPS 20672.9 | ETA 11:38:48
Time 01:46:01 | Step 133417738 / 1000000001 | TPS 20788.1 | ETA 11:34:46
Time 01:46:11 | Step 133623284 / 1000000001 | TPS 20554.6 | ETA 11:42:30
Time 01:46:21 | Step 133830879 / 1000000001 | TPS 20759.5 | ETA 11:35:24
Time 01:46:31 | Step 134036598 / 1000000001 | TPS 20571.8 | ETA 11:41:34
Time 01:46:41 | Step 134240115 / 1000000001 | TPS 20351.7 | ETA 11:48:59
Time 01:46:51 | Step 134445545 / 1000000001 | TPS 20543 | ETA 11:42:13
Time 01:47:01 | Step 134650410 / 1000000001 | TPS 20486.5 | ETA 11:44:00
Time 01:47:11 | Step 134853321 / 1000000001 | TPS 20291 | ETA 11:50:36
Time 01:47:21 | Step 135057223 / 1000000001 | TPS 20390.1 | ETA 11:46:59
Time 01:47:31 | Step 135260882 / 1000000001 | TPS 20365.9 | ETA 11:47:40
Time 01:47:41 | Step 135465738 / 1000000001 | TPS 20485.6 | ETA 11:43:22
Time 01:47:51 | Step 135671060 / 1000000001 | TPS 20532 | ETA 11:41:36
Time 01:48:01 | Step 135874292 / 1000000001 | TPS 20323.2 | ETA 11:48:39
Time 01:48:11 | Step 136078694 / 1000000001 | TPS 20440.1 | ETA 11:44:25
Time 01:48:21 | Step 136283872 / 1000000001 | TPS 20517.8 | ETA 11:41:36
Time 01:48:31 | Step 136492683 / 1000000001 | TPS 20881.1 | ETA 11:29:13
Time 01:48:41 | Step 136699235 / 1000000001 | TPS 20655.1 | ETA 11:36:35
Time 01:48:51 | Step 136905329 / 1000000001 | TPS 20609.3 | ETA 11:37:58
Time 01:49:01 | Step 137109858 / 1000000001 | TPS 20452.8 | ETA 11:43:09
Time 01:49:11 | Step 137316202 / 1000000001 | TPS 20634.4 | ETA 11:36:48
Time 01:49:21 | Step 137524032 / 1000000001 | TPS 20783 | ETA 11:31:39
Time 01:49:31 | Step 137730561 / 1000000001 | TPS 20652.8 | ETA 11:35:50
Time 01:49:41 | Step 137936938 / 1000000001 | TPS 20637.7 | ETA 11:36:11
Time 01:49:51 | Step 138141732 / 1000000001 | TPS 20479.4 | ETA 11:41:24
Time 01:50:01 | Step 138347019 / 1000000001 | TPS 20528.7 | ETA 11:39:33
Time 01:50:11 | Step 138553520 / 1000000001 | TPS 20650 | ETA 11:35:16
Time 01:50:21 | Step 138758472 / 1000000001 | TPS 20495.1 | ETA 11:40:21
Time 01:50:31 | Step 138962051 / 1000000001 | TPS 20357.8 | ETA 11:44:55
Time 01:50:41 | Step 139168027 / 1000000001 | TPS 20597.5 | ETA 11:36:32
Time 01:50:51 | Step 139374753 / 1000000001 | TPS 20672.5 | ETA 11:33:51
Time 01:51:01 | Step 139583684 / 1000000001 | TPS 20893.1 | ETA 11:26:21
Time 01:51:11 | Step 139789050 / 1000000001 | TPS 20536.6 | ETA 11:38:06
Time 01:51:21 | Step 139994762 / 1000000001 | TPS 20571.1 | ETA 11:36:46
Time 01:51:31 | Step 140200111 / 1000000001 | TPS 20534.8 | ETA 11:37:50
Time 01:51:41 | Step 140405788 / 1000000001 | TPS 20567.6 | ETA 11:36:33
Time 01:51:51 | Step 140610601 / 1000000001 | TPS 20480.9 | ETA 11:39:20
Time 01:52:01 | Step 140814880 / 1000000001 | TPS 20427.9 | ETA 11:40:59
Time 01:52:11 | Step 141020507 / 1000000001 | TPS 20562.6 | ETA 11:36:13
Time 01:52:21 | Step 141225563 / 1000000001 | TPS 20505.6 | ETA 11:37:59
Time 01:52:31 | Step 141429377 / 1000000001 | TPS 20381.3 | ETA 11:42:05
Time 01:52:41 | Step 141633779 / 1000000001 | TPS 20440.1 | ETA 11:39:54
Time 01:52:51 | Step 141838384 / 1000000001 | TPS 20460.4 | ETA 11:39:02
Time 01:53:01 | Step 142041834 / 1000000001 | TPS 20345 | ETA 11:42:50
Time 01:53:11 | Step 142248208 / 1000000001 | TPS 20637.3 | ETA 11:32:43
Time 01:53:21 | Step 142453857 / 1000000001 | TPS 20564.9 | ETA 11:34:59
Time 01:53:31 | Step 142659083 / 1000000001 | TPS 20522.4 | ETA 11:36:15
Time 01:53:41 | Step 142865555 / 1000000001 | TPS 20647.2 | ETA 11:31:53
Time 01:53:51 | Step 143070279 / 1000000001 | TPS 20472.3 | ETA 11:37:37
Time 01:54:01 | Step 143274091 / 1000000001 | TPS 20381 | ETA 11:40:35
Time 01:54:11 | Step 143479944 / 1000000001 | TPS 20585.3 | ETA 11:33:28
Time 01:54:21 | Step 143685901 / 1000000001 | TPS 20595.3 | ETA 11:32:58
Time 01:54:31 | Step 143890600 / 1000000001 | TPS 20469.8 | ETA 11:37:03
Time 01:54:41 | Step 144093441 / 1000000001 | TPS 20284 | ETA 11:43:16
Time 01:54:51 | Step 144296942 / 1000000001 | TPS 20350 | ETA 11:40:49
Time 01:55:01 | Step 144501406 / 1000000001 | TPS 20446.3 | ETA 11:37:21
Time 01:55:11 | Step 144707626 / 1000000001 | TPS 20621.9 | ETA 11:31:14
Time 01:55:21 | Step 144914233 / 1000000001 | TPS 20660.7 | ETA 11:29:47
Time 01:55:31 | Step 145119025 / 1000000001 | TPS 20479.2 | ETA 11:35:43
Time 01:55:41 | Step 145324248 / 1000000001 | TPS 20522.2 | ETA 11:34:06
Time 01:55:51 | Step 145528290 / 1000000001 | TPS 20404.2 | ETA 11:37:57
Time 01:56:01 | Step 145733106 / 1000000001 | TPS 20481.6 | ETA 11:35:09
Time 01:56:11 | Step 145936839 / 1000000001 | TPS 20373.3 | ETA 11:38:40
Time 01:56:21 | Step 146140237 / 1000000001 | TPS 20339.7 | ETA 11:39:39
Time 01:56:31 | Step 146344603 / 1000000001 | TPS 20436.6 | ETA 11:36:10
Time 01:56:41 | Step 146549352 / 1000000001 | TPS 20474.9 | ETA 11:34:42
Time 01:56:51 | Step 146753803 / 1000000001 | TPS 20445.1 | ETA 11:35:33
Time 01:57:01 | Step 146957644 / 1000000001 | TPS 20384.1 | ETA 11:37:28
Time 01:57:11 | Step 147162867 / 1000000001 | TPS 20522.3 | ETA 11:32:36
Time 01:57:21 | Step 147367465 / 1000000001 | TPS 20459.7 | ETA 11:34:33
Time 01:57:31 | Step 147571727 / 1000000001 | TPS 20426.1 | ETA 11:35:32
Time 01:57:41 | Step 147779705 / 1000000001 | TPS 20797.7 | ETA 11:22:56
Time 01:57:51 | Step 147986212 / 1000000001 | TPS 20650.6 | ETA 11:27:38
Time 01:58:01 | Step 148191010 / 1000000001 | TPS 20479.7 | ETA 11:33:12
Time 01:58:11 | Step 148397091 / 1000000001 | TPS 20607.9 | ETA 11:28:44
Time 01:58:21 | Step 148600730 / 1000000001 | TPS 20363.9 | ETA 11:36:49
Time 01:58:31 | Step 148806335 / 1000000001 | TPS 20560.5 | ETA 11:29:59
Time 01:58:41 | Step 149012209 / 1000000001 | TPS 20587.3 | ETA 11:28:55
Time 01:58:51 | Step 149216283 / 1000000001 | TPS 20407.3 | ETA 11:34:50
Time 01:59:01 | Step 149419545 / 1000000001 | TPS 20326.2 | ETA 11:37:26
Time 01:59:11 | Step 149623717 / 1000000001 | TPS 20417.1 | ETA 11:34:10
Time 01:59:21 | Step 149826612 / 1000000001 | TPS 20289.5 | ETA 11:38:22
Time 01:59:31 | Step 150029631 / 1000000001 | TPS 20301.9 | ETA 11:37:46
Time 01:59:41 | Step 150233152 / 1000000001 | TPS 20352.1 | ETA 11:35:53
Time 01:59:51 | Step 150437725 / 1000000001 | TPS 20457.2 | ETA 11:32:08
Time 02:00:01 | Step 150643200 / 1000000001 | TPS 20547.4 | ETA 11:28:56
Time 02:00:11 | Step 150847636 / 1000000001 | TPS 20443.6 | ETA 11:32:16
Time 02:00:21 | Step 151051484 / 1000000001 | TPS 20384.8 | ETA 11:34:06
Time 02:00:31 | Step 151255759 / 1000000001 | TPS 20427.5 | ETA 11:32:29
Time 02:00:41 | Step 151460391 / 1000000001 | TPS 20463 | ETA 11:31:07
Time 02:00:51 | Step 151666423 / 1000000001 | TPS 20603.2 | ETA 11:26:14
Time 02:01:01 | Step 151872837 / 1000000001 | TPS 20641.3 | ETA 11:24:48
Time 02:01:11 | Step 152077445 / 1000000001 | TPS 20460.8 | ETA 11:30:41
Time 02:01:21 | Step 152281853 / 1000000001 | TPS 20440.8 | ETA 11:31:11
Time 02:01:31 | Step 152486773 / 1000000001 | TPS 20491.9 | ETA 11:29:18
Time 02:01:41 | Step 152692173 / 1000000001 | TPS 20539.9 | ETA 11:27:31
Time 02:01:51 | Step 152898446 / 1000000001 | TPS 20627.3 | ETA 11:24:27
Time 02:02:01 | Step 153106773 / 1000000001 | TPS 20832.6 | ETA 11:17:32
Time 02:02:11 | Step 153317778 / 1000000001 | TPS 21100.5 | ETA 11:08:46
Time 02:02:21 | Step 153529019 / 1000000001 | TPS 21124 | ETA 11:07:51
Time 02:02:31 | Step 153736254 / 1000000001 | TPS 20723.5 | ETA 11:20:36
Time 02:02:41 | Step 153942676 / 1000000001 | TPS 20642.2 | ETA 11:23:06
Time 02:02:51 | Step 154150545 / 1000000001 | TPS 20786.8 | ETA 11:18:11
Time 02:03:01 | Step 154357790 / 1000000001 | TPS 20724.5 | ETA 11:20:03
Time 02:03:11 | Step 154562112 / 1000000001 | TPS 20432.2 | ETA 11:29:37
Time 02:03:21 | Step 154771881 / 1000000001 | TPS 20976.8 | ETA 11:11:33
Time 02:03:31 | Step 154977066 / 1000000001 | TPS 20518.4 | ETA 11:26:23
Time 02:03:41 | Step 155182676 / 1000000001 | TPS 20561 | ETA 11:24:48
Time 02:03:51 | Step 155387604 / 1000000001 | TPS 20492.7 | ETA 11:26:55
Time 02:04:01 | Step 155592354 / 1000000001 | TPS 20475 | ETA 11:27:20
Time 02:04:11 | Step 155799237 / 1000000001 | TPS 20688.2 | ETA 11:20:05
Time 02:04:21 | Step 156005604 / 1000000001 | TPS 20636.7 | ETA 11:21:37
Time 02:04:31 | Step 156212505 / 1000000001 | TPS 20690.1 | ETA 11:19:42
Time 02:04:41 | Step 156418226 / 1000000001 | TPS 20572.1 | ETA 11:23:26
Time 02:04:51 | Step 156622593 / 1000000001 | TPS 20436.7 | ETA 11:27:47
Time 02:05:01 | Step 156828375 / 1000000001 | TPS 20578.2 | ETA 11:22:54
Time 02:05:11 | Step 157033970 / 1000000001 | TPS 20559.5 | ETA 11:23:21
Time 02:05:21 | Step 157237867 / 1000000001 | TPS 20389.6 | ETA 11:28:53
Time 02:05:31 | Step 157441432 / 1000000001 | TPS 20356.4 | ETA 11:29:50
Time 02:05:41 | Step 157646210 / 1000000001 | TPS 20477.7 | ETA 11:25:35
Time 02:05:51 | Step 157852883 / 1000000001 | TPS 20667.2 | ETA 11:19:07
Time 02:06:01 | Step 158058863 / 1000000001 | TPS 20598 | ETA 11:21:14
Time 02:06:11 | Step 158264449 / 1000000001 | TPS 20558.5 | ETA 11:22:23
Time 02:06:21 | Step 158469826 / 1000000001 | TPS 20537.7 | ETA 11:22:54
Time 02:06:31 | Step 158675536 / 1000000001 | TPS 20570.9 | ETA 11:21:38
Time 02:06:41 | Step 158881387 / 1000000001 | TPS 20585 | ETA 11:21:00
Time 02:06:51 | Step 159085448 / 1000000001 | TPS 20406.1 | ETA 11:26:49
Time 02:07:01 | Step 159289817 / 1000000001 | TPS 20436.9 | ETA 11:25:36
Time 02:07:11 | Step 159493709 / 1000000001 | TPS 20389.1 | ETA 11:27:03
Time 02:07:21 | Step 159698165 / 1000000001 | TPS 20445.6 | ETA 11:24:59
Time 02:07:31 | Step 159902571 / 1000000001 | TPS 20440.5 | ETA 11:24:59
Time 02:07:41 | Step 160106316 / 1000000001 | TPS 20374.4 | ETA 11:27:03
Time 02:07:51 | Step 160311526 / 1000000001 | TPS 20521 | ETA 11:21:58
Time 02:08:01 | Step 160516559 / 1000000001 | TPS 20503.3 | ETA 11:22:23
Time 02:08:11 | Step 160721136 / 1000000001 | TPS 20457.7 | ETA 11:23:45
Time 02:08:21 | Step 160926673 / 1000000001 | TPS 20553.6 | ETA 11:20:23
Time 02:08:31 | Step 161131390 / 1000000001 | TPS 20471.5 | ETA 11:22:57
Time 02:08:41 | Step 161335945 / 1000000001 | TPS 20455.4 | ETA 11:23:19
Time 02:08:51 | Step 161542324 / 1000000001 | TPS 20637.9 | ETA 11:17:07
Time 02:09:01 | Step 161745841 / 1000000001 | TPS 20351.7 | ETA 11:26:28
Time 02:09:11 | Step 161950642 / 1000000001 | TPS 20480 | ETA 11:22:00
Time 02:09:21 | Step 162155507 / 1000000001 | TPS 20486.5 | ETA 11:21:37
Time 02:09:31 | Step 162359456 / 1000000001 | TPS 20394.9 | ETA 11:24:31
Time 02:09:41 | Step 162562898 / 1000000001 | TPS 20344.1 | ETA 11:26:03
Time 02:09:51 | Step 162769396 / 1000000001 | TPS 20649.8 | ETA 11:15:44
Time 02:10:01 | Step 162975292 / 1000000001 | TPS 20589.4 | ETA 11:17:33
Time 02:10:11 | Step 163179355 / 1000000001 | TPS 20406.3 | ETA 11:23:28
Time 02:10:21 | Step 163383835 / 1000000001 | TPS 20447.9 | ETA 11:21:54
Time 02:10:31 | Step 163589240 / 1000000001 | TPS 20540.4 | ETA 11:18:40
Time 02:10:41 | Step 163795013 / 1000000001 | TPS 20577.2 | ETA 11:17:17
Time 02:10:51 | Step 164000550 / 1000000001 | TPS 20553.7 | ETA 11:17:53
Time 02:11:01 | Step 164205315 / 1000000001 | TPS 20476.5 | ETA 11:20:17
Time 02:11:11 | Step 164412048 / 1000000001 | TPS 20673.1 | ETA 11:13:39
Time 02:11:21 | Step 164618634 / 1000000001 | TPS 20658.5 | ETA 11:13:57
Time 02:11:31 | Step 164824779 / 1000000001 | TPS 20614.4 | ETA 11:15:14
Time 02:11:41 | Step 165030626 / 1000000001 | TPS 20584.7 | ETA 11:16:02
Time 02:11:51 | Step 165235479 / 1000000001 | TPS 20485.3 | ETA 11:19:09
Time 02:12:01 | Step 165441014 / 1000000001 | TPS 20553.5 | ETA 11:16:44
Time 02:12:11 | Step 165646600 / 1000000001 | TPS 20558.5 | ETA 11:16:24
Time 02:12:21 | Step 165852961 / 1000000001 | TPS 20635.9 | ETA 11:13:42
Time 02:12:31 | Step 166057480 / 1000000001 | TPS 20451.8 | ETA 11:19:35
Time 02:12:41 | Step 166263944 / 1000000001 | TPS 20646.3 | ETA 11:13:01
Time 02:12:51 | Step 166469545 / 1000000001 | TPS 20560 | ETA 11:15:41
Time 02:13:01 | Step 166674185 / 1000000001 | TPS 20463.9 | ETA 11:18:41
Time 02:13:11 | Step 166878923 / 1000000001 | TPS 20473.8 | ETA 11:18:12
Time 02:13:21 | Step 167083846 / 1000000001 | TPS 20492.2 | ETA 11:17:25
Time 02:13:31 | Step 167287401 / 1000000001 | TPS 20355.5 | ETA 11:21:48
Time 02:13:41 | Step 167492401 / 1000000001 | TPS 20499.8 | ETA 11:16:50
Time 02:13:51 | Step 167696571 / 1000000001 | TPS 20417 | ETA 11:19:25
Time 02:14:01 | Step 167900215 / 1000000001 | TPS 20364.3 | ETA 11:21:00
Time 02:14:11 | Step 168104500 / 1000000001 | TPS 20428.3 | ETA 11:18:42
Time 02:14:21 | Step 168309392 / 1000000001 | TPS 20489.1 | ETA 11:16:31
Time 02:14:31 | Step 168514551 / 1000000001 | TPS 20515.9 | ETA 11:15:28
Time 02:14:41 | Step 168720301 / 1000000001 | TPS 20574.6 | ETA 11:13:23
Time 02:14:51 | Step 168924550 / 1000000001 | TPS 20424.9 | ETA 11:18:09
Time 02:15:01 | Step 169128620 / 1000000001 | TPS 20407 | ETA 11:18:35
Time 02:15:11 | Step 169332536 / 1000000001 | TPS 20391.4 | ETA 11:18:56
Time 02:15:21 | Step 169536664 / 1000000001 | TPS 20412.8 | ETA 11:18:03
Time 02:15:31 | Step 169740712 / 1000000001 | TPS 20404.7 | ETA 11:18:09
Time 02:15:41 | Step 169944729 / 1000000001 | TPS 20401.6 | ETA 11:18:05
Time 02:15:51 | Step 170149372 / 1000000001 | TPS 20464.2 | ETA 11:15:51
Time 02:16:01 | Step 170354305 / 1000000001 | TPS 20493.3 | ETA 11:14:43
Time 02:16:11 | Step 170558653 / 1000000001 | TPS 20434.8 | ETA 11:16:29
Time 02:16:21 | Step 170762067 / 1000000001 | TPS 20341.3 | ETA 11:19:26
Time 02:16:31 | Step 170966191 / 1000000001 | TPS 20412.4 | ETA 11:16:54
Time 02:16:41 | Step 171169220 / 1000000001 | TPS 20302.9 | ETA 11:20:23
Time 02:16:51 | Step 171372609 / 1000000001 | TPS 20338.9 | ETA 11:19:01
Time 02:17:01 | Step 171579743 / 1000000001 | TPS 20713.3 | ETA 11:06:34
Time 02:17:11 | Step 171785184 / 1000000001 | TPS 20544.1 | ETA 11:11:54
Time 02:17:21 | Step 171991294 / 1000000001 | TPS 20611 | ETA 11:09:33
Time 02:17:31 | Step 172196701 / 1000000001 | TPS 20540.7 | ETA 11:11:40
Time 02:17:41 | Step 172402543 / 1000000001 | TPS 20584.2 | ETA 11:10:05
Time 02:17:51 | Step 172607756 / 1000000001 | TPS 20521.2 | ETA 11:11:58
Time 02:18:01 | Step 172812224 / 1000000001 | TPS 20446.8 | ETA 11:14:15
Time 02:18:11 | Step 173016941 / 1000000001 | TPS 20471.6 | ETA 11:13:16
Time 02:18:21 | Step 173222225 / 1000000001 | TPS 20528.4 | ETA 11:11:14
Time 02:18:31 | Step 173428658 / 1000000001 | TPS 20643.3 | ETA 11:07:20
Time 02:18:41 | Step 173635153 / 1000000001 | TPS 20649.5 | ETA 11:06:58
Time 02:18:51 | Step 173843361 / 1000000001 | TPS 20820.8 | ETA 11:01:19
Time 02:19:01 | Step 174050089 / 1000000001 | TPS 20672.8 | ETA 11:05:53
Time 02:19:11 | Step 174255480 / 1000000001 | TPS 20539 | ETA 11:10:03
Time 02:19:21 | Step 174460129 / 1000000001 | TPS 20464.7 | ETA 11:12:19
Time 02:19:31 | Step 174665643 / 1000000001 | TPS 20551.3 | ETA 11:09:19
Time 02:19:41 | Step 174870459 / 1000000001 | TPS 20481.6 | ETA 11:11:26
Time 02:19:51 | Step 175074406 / 1000000001 | TPS 20394.7 | ETA 11:14:08
Time 02:20:01 | Step 175277947 / 1000000001 | TPS 20354.1 | ETA 11:15:18
Time 02:20:11 | Step 175481653 / 1000000001 | TPS 20370.5 | ETA 11:14:36
Time 02:20:21 | Step 175686232 / 1000000001 | TPS 20457.9 | ETA 11:11:33
Time 02:20:31 | Step 175890347 / 1000000001 | TPS 20411.5 | ETA 11:12:54
Time 02:20:41 | Step 176095516 / 1000000001 | TPS 20516.8 | ETA 11:09:17
Time 02:20:51 | Step 176301610 / 1000000001 | TPS 20609.3 | ETA 11:06:07
Time 02:21:01 | Step 176506051 / 1000000001 | TPS 20444 | ETA 11:11:20
Time 02:21:11 | Step 176710389 / 1000000001 | TPS 20433.8 | ETA 11:11:30
Time 02:21:21 | Step 176915479 / 1000000001 | TPS 20509 | ETA 11:08:52
Time 02:21:31 | Step 177121211 / 1000000001 | TPS 20573.1 | ETA 11:06:37
Time 02:21:41 | Step 177329016 / 1000000001 | TPS 20780.5 | ETA 10:59:48
Time 02:21:51 | Step 177536305 / 1000000001 | TPS 20728.8 | ETA 11:01:17
Time 02:22:01 | Step 177741634 / 1000000001 | TPS 20532.7 | ETA 11:07:26
Time 02:22:11 | Step 177948314 / 1000000001 | TPS 20667.9 | ETA 11:02:54
Time 02:22:21 | Step 178155301 / 1000000001 | TPS 20698.6 | ETA 11:01:45
Time 02:22:31 | Step 178363046 / 1000000001 | TPS 20774.5 | ETA 10:59:10
Time 02:22:41 | Step 178571342 / 1000000001 | TPS 20829.6 | ETA 10:57:15
Time 02:22:51 | Step 178776099 / 1000000001 | TPS 20475.6 | ETA 11:08:27
Time 02:23:01 | Step 178983562 / 1000000001 | TPS 20746.3 | ETA 10:59:34
Time 02:23:11 | Step 179189743 / 1000000001 | TPS 20618 | ETA 11:03:30
Time 02:23:21 | Step 179394398 / 1000000001 | TPS 20465.4 | ETA 11:08:17
Time 02:23:31 | Step 179598950 / 1000000001 | TPS 20455.2 | ETA 11:08:27
Time 02:23:41 | Step 179804586 / 1000000001 | TPS 20563.6 | ETA 11:04:45
Time 02:23:51 | Step 180010707 / 1000000001 | TPS 20612.1 | ETA 11:03:01
Time 02:24:01 | Step 180215134 / 1000000001 | TPS 20442.7 | ETA 11:08:21
Time 02:24:11 | Step 180420483 / 1000000001 | TPS 20534.8 | ETA 11:05:11
Time 02:24:21 | Step 180625149 / 1000000001 | TPS 20466.6 | ETA 11:07:14
Time 02:24:31 | Step 180830430 / 1000000001 | TPS 20528 | ETA 11:05:04
Time 02:24:41 | Step 181035027 / 1000000001 | TPS 20459.7 | ETA 11:07:08
Time 02:24:51 | Step 181240434 / 1000000001 | TPS 20540.7 | ETA 11:04:20
Time 02:25:01 | Step 181446402 / 1000000001 | TPS 20596.7 | ETA 11:02:21
Time 02:25:11 | Step 181652213 / 1000000001 | TPS 20580.9 | ETA 11:02:42
Time 02:25:21 | Step 181858398 / 1000000001 | TPS 20618.4 | ETA 11:01:20
Time 02:25:31 | Step 182064952 / 1000000001 | TPS 20655.3 | ETA 10:59:59
Time 02:25:41 | Step 182269514 / 1000000001 | TPS 20456.1 | ETA 11:06:14
Time 02:25:51 | Step 182476313 / 1000000001 | TPS 20679.9 | ETA 10:58:52
Time 02:26:01 | Step 182682568 / 1000000001 | TPS 20625.5 | ETA 11:00:26
Time 02:26:11 | Step 182889229 / 1000000001 | TPS 20666 | ETA 10:58:58
Time 02:26:21 | Step 183096337 / 1000000001 | TPS 20710.8 | ETA 10:57:23
Time 02:26:31 | Step 183301175 / 1000000001 | TPS 20483.7 | ETA 11:04:30
Time 02:26:41 | Step 183507687 / 1000000001 | TPS 20651.2 | ETA 10:58:57
Time 02:26:51 | Step 183715292 / 1000000001 | TPS 20760.5 | ETA 10:55:19
Time 02:27:01 | Step 183923443 / 1000000001 | TPS 20815.1 | ETA 10:53:26
Time 02:27:11 | Step 184129520 / 1000000001 | TPS 20607.7 | ETA 10:59:50
Time 02:27:21 | Step 184337468 / 1000000001 | TPS 20794.8 | ETA 10:53:44
Time 02:27:31 | Step 184544702 / 1000000001 | TPS 20723.3 | ETA 10:55:49
Time 02:27:41 | Step 184752583 / 1000000001 | TPS 20788.1 | ETA 10:53:37
Time 02:27:51 | Step 184959333 / 1000000001 | TPS 20674.8 | ETA 10:57:01
Time 02:28:01 | Step 185164944 / 1000000001 | TPS 20561.1 | ETA 11:00:30
Time 02:28:11 | Step 185370264 / 1000000001 | TPS 20532 | ETA 11:01:16
Time 02:28:21 | Step 185577168 / 1000000001 | TPS 20690.3 | ETA 10:56:02
Time 02:28:31 | Step 185781863 / 1000000001 | TPS 20469.5 | ETA 11:02:57
Time 02:28:41 | Step 185986064 / 1000000001 | TPS 20420 | ETA 11:04:23
Time 02:28:51 | Step 186190528 / 1000000001 | TPS 20446.4 | ETA 11:03:22
Time 02:29:01 | Step 186396358 / 1000000001 | TPS 20582.9 | ETA 10:58:48
Time 02:29:11 | Step 186605857 / 1000000001 | TPS 20949.9 | ETA 10:47:05
Time 02:29:21 | Step 186816370 / 1000000001 | TPS 21051.3 | ETA 10:43:48
Time 02:29:31 | Step 187022852 / 1000000001 | TPS 20648.2 | ETA 10:56:12
Time 02:29:41 | Step 187228646 / 1000000001 | TPS 20579.4 | ETA 10:58:14
Time 02:29:51 | Step 187434505 / 1000000001 | TPS 20585.9 | ETA 10:57:51
Time 02:30:01 | Step 187641610 / 1000000001 | TPS 20710.3 | ETA 10:53:44
Time 02:30:11 | Step 187849605 / 1000000001 | TPS 20799.5 | ETA 10:50:46
Time 02:30:21 | Step 188054827 / 1000000001 | TPS 20522.2 | ETA 10:59:24
Time 02:30:31 | Step 188260383 / 1000000001 | TPS 20555.5 | ETA 10:58:10
Time 02:30:41 | Step 188467709 / 1000000001 | TPS 20732.6 | ETA 10:52:22
Time 02:30:51 | Step 188671697 / 1000000001 | TPS 20398.7 | ETA 11:02:53
Time 02:31:01 | Step 188876392 / 1000000001 | TPS 20469.5 | ETA 11:00:25
Time 02:31:11 | Step 189082749 / 1000000001 | TPS 20635.6 | ETA 10:54:56
Time 02:31:21 | Step 189289271 / 1000000001 | TPS 20652.1 | ETA 10:54:15
Time 02:31:31 | Step 189494987 / 1000000001 | TPS 20571.5 | ETA 10:56:39
Time 02:31:41 | Step 189701070 / 1000000001 | TPS 20608.3 | ETA 10:55:19
Time 02:31:51 | Step 189905472 / 1000000001 | TPS 20440.2 | ETA 11:00:32
Time 02:32:01 | Step 190110128 / 1000000001 | TPS 20465.6 | ETA 10:59:33
Time 02:32:11 | Step 190315197 / 1000000001 | TPS 20506.7 | ETA 10:58:03
Time 02:32:21 | Step 190522237 / 1000000001 | TPS 20703.9 | ETA 10:51:37
Time 02:32:31 | Step 190727563 / 1000000001 | TPS 20532.6 | ETA 10:56:54
Time 02:32:41 | Step 190931148 / 1000000001 | TPS 20358.5 | ETA 11:02:21
Time 02:32:51 | Step 191137008 / 1000000001 | TPS 20586 | ETA 10:54:51
Time 02:33:01 | Step 191341554 / 1000000001 | TPS 20454.5 | ETA 10:58:54
Time 02:33:11 | Step 191545916 / 1000000001 | TPS 20436.2 | ETA 10:59:19
Time 02:33:21 | Step 191749636 / 1000000001 | TPS 20371.9 | ETA 11:01:14
Time 02:33:31 | Step 191954034 / 1000000001 | TPS 20439.7 | ETA 10:58:53
Time 02:33:41 | Step 192158855 / 1000000001 | TPS 20482.1 | ETA 10:57:21
Time 02:33:51 | Step 192362347 / 1000000001 | TPS 20349.2 | ETA 11:01:28
Time 02:34:01 | Step 192564660 / 1000000001 | TPS 20231.3 | ETA 11:05:10
Time 02:34:11 | Step 192770901 / 1000000001 | TPS 20624 | ETA 10:52:20
Time 02:34:21 | Step 192977043 / 1000000001 | TPS 20614.1 | ETA 10:52:28
Time 02:34:31 | Step 193183295 / 1000000001 | TPS 20625.1 | ETA 10:51:58
Time 02:34:41 | Step 193390291 / 1000000001 | TPS 20699.5 | ETA 10:49:27
Time 02:34:51 | Step 193597111 / 1000000001 | TPS 20681.9 | ETA 10:49:50
Time 02:35:01 | Step 193805223 / 1000000001 | TPS 20811.2 | ETA 10:45:38
Time 02:35:11 | Step 194013363 / 1000000001 | TPS 20813.8 | ETA 10:45:23
Time 02:35:21 | Step 194218595 / 1000000001 | TPS 20523.2 | ETA 10:54:22
Time 02:35:31 | Step 194423682 / 1000000001 | TPS 20508.7 | ETA 10:54:39
Time 02:35:41 | Step 194627943 / 1000000001 | TPS 20426.1 | ETA 10:57:08
Time 02:35:51 | Step 194835262 / 1000000001 | TPS 20731.9 | ETA 10:47:17
Time 02:36:01 | Step 195043155 / 1000000001 | TPS 20789.2 | ETA 10:45:19
Time 02:36:11 | Step 195252995 / 1000000001 | TPS 20983.9 | ETA 10:39:10
Time 02:36:21 | Step 195458952 / 1000000001 | TPS 20595.7 | ETA 10:51:03
Time 02:36:31 | Step 195666824 / 1000000001 | TPS 20787.1 | ETA 10:44:53
Time 02:36:41 | Step 195873683 / 1000000001 | TPS 20685.9 | ETA 10:47:53
Time 02:36:51 | Step 196079088 / 1000000001 | TPS 20540.4 | ETA 10:52:18
Time 02:37:01 | Step 196284116 / 1000000001 | TPS 20502.8 | ETA 10:53:20
Time 02:37:11 | Step 196487371 / 1000000001 | TPS 20325.5 | ETA 10:58:52
Time 02:37:21 | Step 196691531 / 1000000001 | TPS 20415.9 | ETA 10:55:47
Time 02:37:31 | Step 196896058 / 1000000001 | TPS 20452.7 | ETA 10:54:26
Time 02:37:41 | Step 197102668 / 1000000001 | TPS 20661 | ETA 10:47:40
Time 02:37:51 | Step 197311012 / 1000000001 | TPS 20834.3 | ETA 10:42:07
Time 02:38:01 | Step 197521194 / 1000000001 | TPS 21018.2 | ETA 10:36:20
Time 02:38:11 | Step 197730199 / 1000000001 | TPS 20900.5 | ETA 10:39:45
Time 02:38:21 | Step 197941559 / 1000000001 | TPS 21135.9 | ETA 10:32:27
Time 02:38:31 | Step 198152493 / 1000000001 | TPS 21093.3 | ETA 10:33:34
Time 02:38:41 | Step 198360101 / 1000000001 | TPS 20760.8 | ETA 10:43:33
Time 02:38:51 | Step 198569319 / 1000000001 | TPS 20921.7 | ETA 10:38:26
Time 02:39:01 | Step 198778630 / 1000000001 | TPS 20931.1 | ETA 10:37:59
Time 02:39:11 | Step 198988813 / 1000000001 | TPS 21018.2 | ETA 10:35:10
Time 02:39:21 | Step 199198488 / 1000000001 | TPS 20967.5 | ETA 10:36:32
Time 02:39:31 | Step 199404686 / 1000000001 | TPS 20619.7 | ETA 10:47:06
Time 02:39:41 | Step 199608541 / 1000000001 | TPS 20385.4 | ETA 10:54:22
Time 02:39:51 | Step 199812998 / 1000000001 | TPS 20445.7 | ETA 10:52:17
Time 02:40:01 | Step 200015849 / 1000000001 | TPS 20285 | ETA 10:57:17
Time 02:40:11 | Step 200220604 / 1000000001 | TPS 20475.5 | ETA 10:51:00
Time 02:40:21 | Step 200428360 / 1000000001 | TPS 20775.6 | ETA 10:41:26
Time 02:40:31 | Step 200634753 / 1000000001 | TPS 20639.2 | ETA 10:45:30
Time 02:40:41 | Step 200840628 / 1000000001 | TPS 20587.5 | ETA 10:46:57
Time 02:40:51 | Step 201047128 / 1000000001 | TPS 20650 | ETA 10:44:50
Time 02:41:01 | Step 201253644 / 1000000001 | TPS 20651.6 | ETA 10:44:37
Time 02:41:11 | Step 201459354 / 1000000001 | TPS 20570.9 | ETA 10:46:58
Time 02:41:21 | Step 201664352 / 1000000001 | TPS 20499.8 | ETA 10:49:03
Time 02:41:31 | Step 201869749 / 1000000001 | TPS 20539.6 | ETA 10:47:38
Time 02:41:41 | Step 202074601 / 1000000001 | TPS 20485.1 | ETA 10:49:11
Time 02:41:51 | Step 202283091 / 1000000001 | TPS 20848.8 | ETA 10:37:41
Time 02:42:01 | Step 202487133 / 1000000001 | TPS 20404 | ETA 10:51:26
Time 02:42:11 | Step 202691373 / 1000000001 | TPS 20423.9 | ETA 10:50:37
Time 02:42:21 | Step 202898650 / 1000000001 | TPS 20727.6 | ETA 10:40:55
Time 02:42:31 | Step 203104033 / 1000000001 | TPS 20538.2 | ETA 10:46:40
Time 02:42:41 | Step 203308713 / 1000000001 | TPS 20467.9 | ETA 10:48:43
Time 02:42:51 | Step 203513125 / 1000000001 | TPS 20441 | ETA 10:49:25
Time 02:43:01 | Step 203718057 / 1000000001 | TPS 20493.2 | ETA 10:47:35
Time 02:43:11 | Step 203922512 / 1000000001 | TPS 20445.5 | ETA 10:48:56
Time 02:43:21 | Step 204130059 / 1000000001 | TPS 20754.7 | ETA 10:39:06
Time 02:43:31 | Step 204337688 / 1000000001 | TPS 20762.8 | ETA 10:38:41
Time 02:43:41 | Step 204544256 / 1000000001 | TPS 20656.8 | ETA 10:41:48
Time 02:43:51 | Step 204750410 / 1000000001 | TPS 20615.3 | ETA 10:42:55
Time 02:44:01 | Step 204957111 / 1000000001 | TPS 20670.1 | ETA 10:41:03
Time 02:44:11 | Step 205162056 / 1000000001 | TPS 20494.5 | ETA 10:46:23
Time 02:44:21 | Step 205368354 / 1000000001 | TPS 20629.8 | ETA 10:41:58
Time 02:44:31 | Step 205572944 / 1000000001 | TPS 20458.9 | ETA 10:47:10
Time 02:44:41 | Step 205777342 / 1000000001 | TPS 20439.7 | ETA 10:47:36
Time 02:44:51 | Step 205980815 / 1000000001 | TPS 20347.3 | ETA 10:50:23
Time 02:45:01 | Step 206185692 / 1000000001 | TPS 20487.7 | ETA 10:45:45
Time 02:45:11 | Step 206391901 / 1000000001 | TPS 20620.9 | ETA 10:41:25
Time 02:45:21 | Step 206598043 / 1000000001 | TPS 20614.1 | ETA 10:41:28
Time 02:45:31 | Step 206803401 / 1000000001 | TPS 20535.6 | ETA 10:43:45
Time 02:45:41 | Step 207009934 / 1000000001 | TPS 20653.2 | ETA 10:39:55
Time 02:45:51 | Step 207215807 / 1000000001 | TPS 20587.3 | ETA 10:41:48
Time 02:46:01 | Step 207421130 / 1000000001 | TPS 20532.2 | ETA 10:43:21
Time 02:46:11 | Step 207625233 / 1000000001 | TPS 20410.2 | ETA 10:47:02
Time 02:46:21 | Step 207829890 / 1000000001 | TPS 20465.7 | ETA 10:45:07
Time 02:46:31 | Step 208034834 / 1000000001 | TPS 20494.4 | ETA 10:44:03
Time 02:46:41 | Step 208240009 / 1000000001 | TPS 20517.4 | ETA 10:43:09
Time 02:46:51 | Step 208445159 / 1000000001 | TPS 20514.9 | ETA 10:43:04
Time 02:47:01 | Step 208649881 / 1000000001 | TPS 20472.2 | ETA 10:44:14
Time 02:47:11 | Step 208855293 / 1000000001 | TPS 20541 | ETA 10:41:55
Time 02:47:21 | Step 209059168 / 1000000001 | TPS 20387.5 | ETA 10:46:35
Time 02:47:31 | Step 209263139 / 1000000001 | TPS 20397 | ETA 10:46:07
Time 02:47:41 | Step 209467827 / 1000000001 | TPS 20468.8 | ETA 10:43:41
Time 02:47:51 | Step 209671017 / 1000000001 | TPS 20318.9 | ETA 10:48:16
Time 02:48:01 | Step 209876597 / 1000000001 | TPS 20557.9 | ETA 10:40:33
Time 02:48:11 | Step 210080222 / 1000000001 | TPS 20362.4 | ETA 10:46:33
Time 02:48:21 | Step 210284474 / 1000000001 | TPS 20425.1 | ETA 10:44:23
Time 02:48:31 | Step 210490407 / 1000000001 | TPS 20593.2 | ETA 10:38:58
Time 02:48:41 | Step 210698841 / 1000000001 | TPS 20843.4 | ETA 10:31:08
Time 02:48:51 | Step 210907278 / 1000000001 | TPS 20843.7 | ETA 10:30:57
Time 02:49:01 | Step 211113870 / 1000000001 | TPS 20659.2 | ETA 10:36:25
Time 02:49:11 | Step 211319774 / 1000000001 | TPS 20590.3 | ETA 10:38:23
Time 02:49:21 | Step 211525287 / 1000000001 | TPS 20551.2 | ETA 10:39:26
[...]
Time 12:46:01 | Step 944700601 / 1000000001 | TPS 20585.1 | ETA 00:44:46
Time 12:46:11 | Step 944907738 / 1000000001 | TPS 20713.7 | ETA 00:44:19
Time 12:46:21 | Step 945114971 / 1000000001 | TPS 20723.3 | ETA 00:44:08
Time 12:46:31 | Step 945322134 / 1000000001 | TPS 20716.1 | ETA 00:43:59
Time 12:46:41 | Step 945528601 / 1000000001 | TPS 20646.4 | ETA 00:43:58
Time 12:46:51 | Step 945735408 / 1000000001 | TPS 20680.6 | ETA 00:43:43
Time 12:47:01 | Step 945943912 / 1000000001 | TPS 20850.4 | ETA 00:43:12
Time 12:47:11 | Step 946150494 / 1000000001 | TPS 20658.1 | ETA 00:43:26
Time 12:47:21 | Step 946357369 / 1000000001 | TPS 20687.4 | ETA 00:43:13
Time 12:47:31 | Step 946563318 / 1000000001 | TPS 20594.9 | ETA 00:43:14
Time 12:47:41 | Step 946768446 / 1000000001 | TPS 20512.7 | ETA 00:43:15
Time 12:47:51 | Step 946972906 / 1000000001 | TPS 20446 | ETA 00:43:13
Time 12:48:01 | Step 947177805 / 1000000001 | TPS 20489.9 | ETA 00:42:57
Time 12:48:11 | Step 947382983 / 1000000001 | TPS 20517.8 | ETA 00:42:44
Time 12:48:21 | Step 947587907 / 1000000001 | TPS 20492.4 | ETA 00:42:37
Time 12:48:31 | Step 947792270 / 1000000001 | TPS 20436.3 | ETA 00:42:34
Time 12:48:41 | Step 947998134 / 1000000001 | TPS 20586.4 | ETA 00:42:06
Time 12:48:51 | Step 948206875 / 1000000001 | TPS 20874.1 | ETA 00:41:21
Time 12:49:01 | Step 948413493 / 1000000001 | TPS 20661.8 | ETA 00:41:36
Time 12:49:11 | Step 948618475 / 1000000001 | TPS 20498.1 | ETA 00:41:46
Time 12:49:21 | Step 948824788 / 1000000001 | TPS 20631.3 | ETA 00:41:20
Time 12:49:31 | Step 949029550 / 1000000001 | TPS 20476.2 | ETA 00:41:29
Time 12:49:41 | Step 949235241 / 1000000001 | TPS 20569.1 | ETA 00:41:08
Time 12:49:51 | Step 949441046 / 1000000001 | TPS 20580.4 | ETA 00:40:56
Time 12:50:01 | Step 949650353 / 1000000001 | TPS 20930.6 | ETA 00:40:05
Time 12:50:11 | Step 949861095 / 1000000001 | TPS 21074.2 | ETA 00:39:39
Time 12:50:21 | Step 950067952 / 1000000001 | TPS 20685.7 | ETA 00:40:13
Time 12:50:31 | Step 950275964 / 1000000001 | TPS 20801.2 | ETA 00:39:50
Time 12:50:41 | Step 950481938 / 1000000001 | TPS 20597.4 | ETA 00:40:04
Time 12:50:51 | Step 950688109 / 1000000001 | TPS 20617.1 | ETA 00:39:51
Time 12:51:01 | Step 950894720 / 1000000001 | TPS 20661 | ETA 00:39:36
Time 12:51:11 | Step 951099658 / 1000000001 | TPS 20493.6 | ETA 00:39:46
Time 12:51:21 | Step 951303627 / 1000000001 | TPS 20396.8 | ETA 00:39:47
Time 12:51:31 | Step 951509410 / 1000000001 | TPS 20578.2 | ETA 00:39:16
Time 12:51:41 | Step 951716166 / 1000000001 | TPS 20675.5 | ETA 00:38:55
Time 12:51:51 | Step 951921177 / 1000000001 | TPS 20501.1 | ETA 00:39:05
Time 12:52:01 | Step 952125585 / 1000000001 | TPS 20440.8 | ETA 00:39:02
Time 12:52:11 | Step 952330559 / 1000000001 | TPS 20497.4 | ETA 00:38:45
Time 12:52:21 | Step 952540815 / 1000000001 | TPS 21025.6 | ETA 00:37:37
Time 12:52:31 | Step 952751804 / 1000000001 | TPS 21098.8 | ETA 00:37:19
Time 12:52:41 | Step 952962059 / 1000000001 | TPS 21025.5 | ETA 00:37:17
Time 12:52:51 | Step 953169721 / 1000000001 | TPS 20766 | ETA 00:37:35
Time 12:53:01 | Step 953374648 / 1000000001 | TPS 20492.7 | ETA 00:37:55
Time 12:53:11 | Step 953580149 / 1000000001 | TPS 20550 | ETA 00:37:38
Time 12:53:21 | Step 953788757 / 1000000001 | TPS 20860.8 | ETA 00:36:55
Time 12:53:31 | Step 953997455 / 1000000001 | TPS 20869.7 | ETA 00:36:44
Time 12:53:41 | Step 954207127 / 1000000001 | TPS 20967.1 | ETA 00:36:24
Time 12:53:51 | Step 954414354 / 1000000001 | TPS 20722.7 | ETA 00:36:39
Time 12:54:01 | Step 954621094 / 1000000001 | TPS 20673.9 | ETA 00:36:34
Time 12:54:11 | Step 954831018 / 1000000001 | TPS 20992.4 | ETA 00:35:51
Time 12:54:21 | Step 955039719 / 1000000001 | TPS 20870.1 | ETA 00:35:54
Time 12:54:31 | Step 955246989 / 1000000001 | TPS 20727 | ETA 00:35:59
Time 12:54:41 | Step 955454702 / 1000000001 | TPS 20771.3 | ETA 00:35:44
Time 12:54:51 | Step 955661360 / 1000000001 | TPS 20665.8 | ETA 00:35:45
Time 12:55:01 | Step 955867940 / 1000000001 | TPS 20657.9 | ETA 00:35:36
Time 12:55:11 | Step 956073590 / 1000000001 | TPS 20564.8 | ETA 00:35:35
Time 12:55:21 | Step 956277344 / 1000000001 | TPS 20375.4 | ETA 00:35:45
Time 12:55:31 | Step 956481142 / 1000000001 | TPS 20379.8 | ETA 00:35:35
Time 12:55:41 | Step 956684888 / 1000000001 | TPS 20374.5 | ETA 00:35:25
Time 12:55:51 | Step 956889593 / 1000000001 | TPS 20470.4 | ETA 00:35:05
Time 12:56:01 | Step 957093840 / 1000000001 | TPS 20424.7 | ETA 00:35:00
Time 12:56:11 | Step 957298772 / 1000000001 | TPS 20493.1 | ETA 00:34:43
Time 12:56:21 | Step 957502605 / 1000000001 | TPS 20383.3 | ETA 00:34:44
Time 12:56:31 | Step 957706840 / 1000000001 | TPS 20423.5 | ETA 00:34:30
Time 12:56:41 | Step 957913544 / 1000000001 | TPS 20670.3 | ETA 00:33:56
Time 12:56:51 | Step 958118162 / 1000000001 | TPS 20461.7 | ETA 00:34:06
Time 12:57:01 | Step 958323383 / 1000000001 | TPS 20522.1 | ETA 00:33:50
Time 12:57:11 | Step 958527712 / 1000000001 | TPS 20432.8 | ETA 00:33:49
Time 12:57:21 | Step 958732050 / 1000000001 | TPS 20433.8 | ETA 00:33:39
Time 12:57:31 | Step 958935852 / 1000000001 | TPS 20380.2 | ETA 00:33:34
Time 12:57:41 | Step 959139594 / 1000000001 | TPS 20374.2 | ETA 00:33:25
Time 12:57:51 | Step 959343844 / 1000000001 | TPS 20424.8 | ETA 00:33:10
Time 12:58:01 | Step 959548280 / 1000000001 | TPS 20443.6 | ETA 00:32:58
Time 12:58:11 | Step 959752761 / 1000000001 | TPS 20448.1 | ETA 00:32:48
Time 12:58:21 | Step 959958212 / 1000000001 | TPS 20545.1 | ETA 00:32:28
Time 12:58:31 | Step 960163082 / 1000000001 | TPS 20487 | ETA 00:32:24
Time 12:58:41 | Step 960366763 / 1000000001 | TPS 20368.1 | ETA 00:32:25
Time 12:58:51 | Step 960572220 / 1000000001 | TPS 20545.6 | ETA 00:31:59
Time 12:59:01 | Step 960778008 / 1000000001 | TPS 20578.8 | ETA 00:31:45
Time 12:59:11 | Step 960983344 / 1000000001 | TPS 20533.6 | ETA 00:31:40
Time 12:59:21 | Step 961190549 / 1000000001 | TPS 20720.5 | ETA 00:31:12
Time 12:59:31 | Step 961397608 / 1000000001 | TPS 20705.9 | ETA 00:31:04
Time 12:59:41 | Step 961602188 / 1000000001 | TPS 20457.9 | ETA 00:31:16
Time 12:59:51 | Step 961810120 / 1000000001 | TPS 20793.2 | ETA 00:30:36
Time 13:00:01 | Step 962014089 / 1000000001 | TPS 20396.9 | ETA 00:31:02
Time 13:00:11 | Step 962221219 / 1000000001 | TPS 20712.9 | ETA 00:30:23
Time 13:00:21 | Step 962426724 / 1000000001 | TPS 20550.5 | ETA 00:30:28
Time 13:00:31 | Step 962631583 / 1000000001 | TPS 20485.9 | ETA 00:30:24
Time 13:00:41 | Step 962836995 / 1000000001 | TPS 20541 | ETA 00:30:09
Time 13:00:51 | Step 963042573 / 1000000001 | TPS 20557.8 | ETA 00:29:57
Time 13:01:01 | Step 963248562 / 1000000001 | TPS 20598.7 | ETA 00:29:44
Time 13:01:11 | Step 963453509 / 1000000001 | TPS 20494.6 | ETA 00:29:43
Time 13:01:21 | Step 963657147 / 1000000001 | TPS 20363.8 | ETA 00:29:44
Time 13:01:31 | Step 963862308 / 1000000001 | TPS 20515.9 | ETA 00:29:21
Time 13:01:41 | Step 964067030 / 1000000001 | TPS 20472.1 | ETA 00:29:15
Time 13:01:51 | Step 964273200 / 1000000001 | TPS 20617 | ETA 00:28:52
Time 13:02:01 | Step 964479396 / 1000000001 | TPS 20619.6 | ETA 00:28:42
Time 13:02:11 | Step 964684622 / 1000000001 | TPS 20522.5 | ETA 00:28:40
Time 13:02:21 | Step 964889885 / 1000000001 | TPS 20526.3 | ETA 00:28:30
Time 13:02:31 | Step 965095027 / 1000000001 | TPS 20514.2 | ETA 00:28:21
Time 13:02:41 | Step 965301900 / 1000000001 | TPS 20687.2 | ETA 00:27:57
Time 13:02:51 | Step 965506980 / 1000000001 | TPS 20507.9 | ETA 00:28:01
Time 13:03:01 | Step 965713739 / 1000000001 | TPS 20675.8 | ETA 00:27:38
Time 13:03:11 | Step 965921664 / 1000000001 | TPS 20792.5 | ETA 00:27:18
Time 13:03:21 | Step 966127956 / 1000000001 | TPS 20629.1 | ETA 00:27:21
Time 13:03:31 | Step 966334434 / 1000000001 | TPS 20647.8 | ETA 00:27:10
Time 13:03:41 | Step 966539212 / 1000000001 | TPS 20477.7 | ETA 00:27:14
Time 13:03:51 | Step 966744344 / 1000000001 | TPS 20513.1 | ETA 00:27:01
Time 13:04:01 | Step 966952914 / 1000000001 | TPS 20856.9 | ETA 00:26:24
Time 13:04:11 | Step 967162688 / 1000000001 | TPS 20977.4 | ETA 00:26:05
Time 13:04:21 | Step 967368037 / 1000000001 | TPS 20534.8 | ETA 00:26:29
Time 13:04:31 | Step 967573523 / 1000000001 | TPS 20548.6 | ETA 00:26:18
Time 13:04:41 | Step 967778961 / 1000000001 | TPS 20543.8 | ETA 00:26:08
Time 13:04:51 | Step 967983593 / 1000000001 | TPS 20463.2 | ETA 00:26:04
Time 13:05:01 | Step 968188228 / 1000000001 | TPS 20463.4 | ETA 00:25:54
Time 13:05:11 | Step 968393160 / 1000000001 | TPS 20493.2 | ETA 00:25:42
Time 13:05:21 | Step 968598978 / 1000000001 | TPS 20581.8 | ETA 00:25:25
Time 13:05:31 | Step 968804147 / 1000000001 | TPS 20516.9 | ETA 00:25:20
Time 13:05:41 | Step 969008672 / 1000000001 | TPS 20452.5 | ETA 00:25:15
Time 13:05:51 | Step 969214495 / 1000000001 | TPS 20582.3 | ETA 00:24:55
Time 13:06:01 | Step 969420373 / 1000000001 | TPS 20587.8 | ETA 00:24:45
Time 13:06:11 | Step 969625577 / 1000000001 | TPS 20520.3 | ETA 00:24:40
Time 13:06:21 | Step 969830984 / 1000000001 | TPS 20540.6 | ETA 00:24:28
Time 13:06:31 | Step 970035794 / 1000000001 | TPS 20480.8 | ETA 00:24:23
Time 13:06:41 | Step 970239816 / 1000000001 | TPS 20402.2 | ETA 00:24:18
Time 13:06:51 | Step 970444430 / 1000000001 | TPS 20461.3 | ETA 00:24:04
Time 13:07:01 | Step 970650891 / 1000000001 | TPS 20646.1 | ETA 00:23:41
Time 13:07:11 | Step 970855631 / 1000000001 | TPS 20473.9 | ETA 00:23:43
Time 13:07:21 | Step 971061684 / 1000000001 | TPS 20605.2 | ETA 00:23:24
Time 13:07:31 | Step 971267648 / 1000000001 | TPS 20596.4 | ETA 00:23:15
Time 13:07:41 | Step 971473798 / 1000000001 | TPS 20615 | ETA 00:23:03
Time 13:07:51 | Step 971679953 / 1000000001 | TPS 20615.5 | ETA 00:22:53
Time 13:08:01 | Step 971885146 / 1000000001 | TPS 20519.3 | ETA 00:22:50
Time 13:08:11 | Step 972089632 / 1000000001 | TPS 20448.6 | ETA 00:22:44
Time 13:08:21 | Step 972298170 / 1000000001 | TPS 20853.8 | ETA 00:22:08
Time 13:08:31 | Step 972504241 / 1000000001 | TPS 20607.1 | ETA 00:22:14
Time 13:08:41 | Step 972711718 / 1000000001 | TPS 20747.7 | ETA 00:21:55
Time 13:08:51 | Step 972918749 / 1000000001 | TPS 20703 | ETA 00:21:48
Time 13:09:01 | Step 973125218 / 1000000001 | TPS 20646.9 | ETA 00:21:41
Time 13:09:11 | Step 973331350 / 1000000001 | TPS 20613.2 | ETA 00:21:33
Time 13:09:21 | Step 973536233 / 1000000001 | TPS 20488.3 | ETA 00:21:31
Time 13:09:31 | Step 973742443 / 1000000001 | TPS 20621 | ETA 00:21:13
Time 13:09:41 | Step 973948058 / 1000000001 | TPS 20561.4 | ETA 00:21:07
Time 13:09:51 | Step 974150445 / 1000000001 | TPS 20238.7 | ETA 00:21:17
Time 13:10:01 | Step 974354427 / 1000000001 | TPS 20398.1 | ETA 00:20:57
Time 13:10:11 | Step 974557874 / 1000000001 | TPS 20344.6 | ETA 00:20:50
Time 13:10:21 | Step 974763146 / 1000000001 | TPS 20527.1 | ETA 00:20:29
Time 13:10:31 | Step 974968991 / 1000000001 | TPS 20584.4 | ETA 00:20:16
Time 13:10:41 | Step 975176149 / 1000000001 | TPS 20715.8 | ETA 00:19:58
Time 13:10:51 | Step 975383932 / 1000000001 | TPS 20778.2 | ETA 00:19:44
Time 13:11:01 | Step 975589988 / 1000000001 | TPS 20605.5 | ETA 00:19:44
Time 13:11:11 | Step 975796631 / 1000000001 | TPS 20664.3 | ETA 00:19:31
Time 13:11:21 | Step 976003421 / 1000000001 | TPS 20678.9 | ETA 00:19:20
Time 13:11:31 | Step 976210353 / 1000000001 | TPS 20693.2 | ETA 00:19:09
Time 13:11:41 | Step 976416673 / 1000000001 | TPS 20631.9 | ETA 00:19:03
Time 13:11:51 | Step 976622436 / 1000000001 | TPS 20576.2 | ETA 00:18:56
Time 13:12:01 | Step 976829812 / 1000000001 | TPS 20737.5 | ETA 00:18:37
Time 13:12:11 | Step 977034243 / 1000000001 | TPS 20443.1 | ETA 00:18:43
Time 13:12:21 | Step 977239910 / 1000000001 | TPS 20566.7 | ETA 00:18:26
Time 13:12:31 | Step 977445293 / 1000000001 | TPS 20538.3 | ETA 00:18:18
Time 13:12:41 | Step 977651727 / 1000000001 | TPS 20643.3 | ETA 00:18:02
Time 13:12:51 | Step 977858572 / 1000000001 | TPS 20684.5 | ETA 00:17:50
Time 13:13:01 | Step 978062897 / 1000000001 | TPS 20432.5 | ETA 00:17:53
Time 13:13:11 | Step 978269801 / 1000000001 | TPS 20690.4 | ETA 00:17:30
Time 13:13:21 | Step 978477397 / 1000000001 | TPS 20759.5 | ETA 00:17:16
Time 13:13:31 | Step 978684353 / 1000000001 | TPS 20695.5 | ETA 00:17:09
Time 13:13:41 | Step 978890455 / 1000000001 | TPS 20610.1 | ETA 00:17:04
Time 13:13:51 | Step 979094052 / 1000000001 | TPS 20359.7 | ETA 00:17:06
Time 13:14:01 | Step 979300554 / 1000000001 | TPS 20650.1 | ETA 00:16:42
Time 13:14:11 | Step 979507233 / 1000000001 | TPS 20667.9 | ETA 00:16:31
Time 13:14:21 | Step 979713738 / 1000000001 | TPS 20650.5 | ETA 00:16:22
Time 13:14:31 | Step 979918786 / 1000000001 | TPS 20504.7 | ETA 00:16:19
Time 13:14:41 | Step 980124011 / 1000000001 | TPS 20522.4 | ETA 00:16:08
Time 13:14:51 | Step 980332234 / 1000000001 | TPS 20822.2 | ETA 00:15:44
Time 13:15:01 | Step 980538320 / 1000000001 | TPS 20608.6 | ETA 00:15:44
Time 13:15:11 | Step 980744612 / 1000000001 | TPS 20629.1 | ETA 00:15:33
Time 13:15:21 | Step 980949934 / 1000000001 | TPS 20532.2 | ETA 00:15:27
Time 13:15:31 | Step 981154369 / 1000000001 | TPS 20443.5 | ETA 00:15:21
Time 13:15:41 | Step 981359247 / 1000000001 | TPS 20487.7 | ETA 00:15:09
Time 13:15:51 | Step 981564441 / 1000000001 | TPS 20519.4 | ETA 00:14:58
Time 13:16:01 | Step 981770160 / 1000000001 | TPS 20571.9 | ETA 00:14:46
Time 13:16:11 | Step 981976769 / 1000000001 | TPS 20660.8 | ETA 00:14:32
Time 13:16:21 | Step 982182395 / 1000000001 | TPS 20562.5 | ETA 00:14:26
Time 13:16:31 | Step 982389314 / 1000000001 | TPS 20691.9 | ETA 00:14:11
Time 13:16:41 | Step 982595947 / 1000000001 | TPS 20663.3 | ETA 00:14:02
Time 13:16:51 | Step 982801436 / 1000000001 | TPS 20548.8 | ETA 00:13:56
Time 13:17:01 | Step 983007005 / 1000000001 | TPS 20556.8 | ETA 00:13:46
Time 13:17:11 | Step 983212496 / 1000000001 | TPS 20549 | ETA 00:13:36
Time 13:17:21 | Step 983417096 / 1000000001 | TPS 20459.9 | ETA 00:13:30
Time 13:17:31 | Step 983620896 / 1000000001 | TPS 20379.9 | ETA 00:13:23
Time 13:17:41 | Step 983825947 / 1000000001 | TPS 20505 | ETA 00:13:08
Time 13:17:51 | Step 984032009 / 1000000001 | TPS 20606.2 | ETA 00:12:54
Time 13:18:01 | Step 984238904 / 1000000001 | TPS 20689.5 | ETA 00:12:41
Time 13:18:11 | Step 984445379 / 1000000001 | TPS 20647.3 | ETA 00:12:33
Time 13:18:21 | Step 984652589 / 1000000001 | TPS 20721 | ETA 00:12:20
Time 13:18:31 | Step 984859199 / 1000000001 | TPS 20660.9 | ETA 00:12:12
Time 13:18:41 | Step 985064814 / 1000000001 | TPS 20561.5 | ETA 00:12:06
Time 13:18:51 | Step 985271735 / 1000000001 | TPS 20692.1 | ETA 00:11:51
Time 13:19:01 | Step 985478290 / 1000000001 | TPS 20655.5 | ETA 00:11:43
Time 13:19:11 | Step 985685643 / 1000000001 | TPS 20735.2 | ETA 00:11:30
Time 13:19:21 | Step 985892101 / 1000000001 | TPS 20645.7 | ETA 00:11:23
Time 13:19:31 | Step 986094745 / 1000000001 | TPS 20264.2 | ETA 00:11:26
Time 13:19:41 | Step 986299564 / 1000000001 | TPS 20481.8 | ETA 00:11:08
Time 13:19:51 | Step 986505599 / 1000000001 | TPS 20603.4 | ETA 00:10:54
Time 13:20:01 | Step 986709650 / 1000000001 | TPS 20404.9 | ETA 00:10:51
Time 13:20:11 | Step 986913081 / 1000000001 | TPS 20342.9 | ETA 00:10:43
Time 13:20:21 | Step 987118629 / 1000000001 | TPS 20554.8 | ETA 00:10:26
Time 13:20:31 | Step 987327393 / 1000000001 | TPS 20876.4 | ETA 00:10:07
Time 13:20:41 | Step 987532004 / 1000000001 | TPS 20461.1 | ETA 00:10:09
Time 13:20:51 | Step 987738486 / 1000000001 | TPS 20648.2 | ETA 00:09:53
Time 13:21:01 | Step 987943989 / 1000000001 | TPS 20550.3 | ETA 00:09:46
Time 13:21:11 | Step 988150852 / 1000000001 | TPS 20686.3 | ETA 00:09:32
Time 13:21:21 | Step 988358367 / 1000000001 | TPS 20751.3 | ETA 00:09:21
Time 13:21:31 | Step 988563633 / 1000000001 | TPS 20526.5 | ETA 00:09:17
Time 13:21:41 | Step 988768876 / 1000000001 | TPS 20524.2 | ETA 00:09:07
Time 13:21:51 | Step 988975672 / 1000000001 | TPS 20679.6 | ETA 00:08:53
Time 13:22:01 | Step 989179555 / 1000000001 | TPS 20388.3 | ETA 00:08:50
Time 13:22:11 | Step 989383445 / 1000000001 | TPS 20388.9 | ETA 00:08:40
Time 13:22:21 | Step 989587885 / 1000000001 | TPS 20444 | ETA 00:08:29
Time 13:22:31 | Step 989792807 / 1000000001 | TPS 20492.2 | ETA 00:08:18
Time 13:22:41 | Step 989999031 / 1000000001 | TPS 20622.2 | ETA 00:08:04
Time 13:22:51 | Step 990206438 / 1000000001 | TPS 20740.6 | ETA 00:07:52
Time 13:23:01 | Step 990412739 / 1000000001 | TPS 20630.1 | ETA 00:07:44
Time 13:23:11 | Step 990619914 / 1000000001 | TPS 20717.4 | ETA 00:07:32
Time 13:23:21 | Step 990827360 / 1000000001 | TPS 20744.6 | ETA 00:07:22
Time 13:23:31 | Step 991034567 / 1000000001 | TPS 20720.7 | ETA 00:07:12
Time 13:23:41 | Step 991241401 / 1000000001 | TPS 20683.2 | ETA 00:07:03
Time 13:23:51 | Step 991447792 / 1000000001 | TPS 20639.1 | ETA 00:06:54
Time 13:24:01 | Step 991654831 / 1000000001 | TPS 20703.9 | ETA 00:06:43
Time 13:24:11 | Step 991860203 / 1000000001 | TPS 20537 | ETA 00:06:36
Time 13:24:21 | Step 992065294 / 1000000001 | TPS 20509 | ETA 00:06:26
Time 13:24:31 | Step 992272088 / 1000000001 | TPS 20679.4 | ETA 00:06:13
Time 13:24:41 | Step 992479814 / 1000000001 | TPS 20772.6 | ETA 00:06:02
Time 13:24:51 | Step 992684508 / 1000000001 | TPS 20469.4 | ETA 00:05:57
Time 13:25:01 | Step 992888695 / 1000000001 | TPS 20418.6 | ETA 00:05:48
Time 13:25:11 | Step 993092873 / 1000000001 | TPS 20417.8 | ETA 00:05:38
Time 13:25:21 | Step 993298475 / 1000000001 | TPS 20560.1 | ETA 00:05:25
Time 13:25:31 | Step 993504040 / 1000000001 | TPS 20556.5 | ETA 00:05:16
Time 13:25:41 | Step 993709659 / 1000000001 | TPS 20561.9 | ETA 00:05:05
Time 13:25:51 | Step 993914781 / 1000000001 | TPS 20512.1 | ETA 00:04:56
Time 13:26:01 | Step 994118744 / 1000000001 | TPS 20396.3 | ETA 00:04:48
Time 13:26:11 | Step 994322160 / 1000000001 | TPS 20341.6 | ETA 00:04:39
Time 13:26:21 | Step 994526065 / 1000000001 | TPS 20390.4 | ETA 00:04:28
Time 13:26:31 | Step 994729508 / 1000000001 | TPS 20344.2 | ETA 00:04:19
Time 13:26:41 | Step 994935707 / 1000000001 | TPS 20619.8 | ETA 00:04:05
Time 13:26:51 | Step 995141992 / 1000000001 | TPS 20628.5 | ETA 00:03:55
Time 13:27:01 | Step 995348528 / 1000000001 | TPS 20653.5 | ETA 00:03:45
Time 13:27:11 | Step 995554124 / 1000000001 | TPS 20559.5 | ETA 00:03:36
Time 13:27:21 | Step 995760385 / 1000000001 | TPS 20625.9 | ETA 00:03:25
Time 13:27:31 | Step 995967301 / 1000000001 | TPS 20691.4 | ETA 00:03:14
Time 13:27:41 | Step 996173015 / 1000000001 | TPS 20571.3 | ETA 00:03:06
Time 13:27:51 | Step 996381701 / 1000000001 | TPS 20868.6 | ETA 00:02:53
Time 13:28:01 | Step 996589206 / 1000000001 | TPS 20750.4 | ETA 00:02:44
Time 13:28:11 | Step 996795248 / 1000000001 | TPS 20604.1 | ETA 00:02:35
Time 13:28:21 | Step 997000001 / 1000000001 | TPS 20428.4 | ETA 00:02:26
Time 13:28:31 | Step 997207510 / 1000000001 | TPS 20750.7 | ETA 00:02:14
Time 13:28:41 | Step 997414831 / 1000000001 | TPS 20732.1 | ETA 00:02:04
Time 13:28:51 | Step 997622578 / 1000000001 | TPS 20774.7 | ETA 00:01:54
Time 13:29:01 | Step 997829890 / 1000000001 | TPS 20731.2 | ETA 00:01:44
Time 13:29:11 | Step 998034948 / 1000000001 | TPS 20505.8 | ETA 00:01:35
Time 13:29:21 | Step 998241742 / 1000000001 | TPS 20679.4 | ETA 00:01:25
Time 13:29:31 | Step 998450249 / 1000000001 | TPS 20850.6 | ETA 00:01:14
Time 13:29:41 | Step 998657896 / 1000000001 | TPS 20764.6 | ETA 00:01:04
Time 13:29:51 | Step 998863771 / 1000000001 | TPS 20587.5 | ETA 00:00:55
Time 13:30:01 | Step 999070124 / 1000000001 | TPS 20635.3 | ETA 00:00:45
Time 13:30:11 | Step 999274754 / 1000000001 | TPS 20463 | ETA 00:00:35
Time 13:30:21 | Step 999481129 / 1000000001 | TPS 20637.4 | ETA 00:00:25
Time 13:30:31 | Step 999687184 / 1000000001 | TPS 20605.5 | ETA 00:00:15
Time 13:30:41 | Step 999896554 / 1000000001 | TPS 20936.9 | ETA 00:00:04
Time 13:30:46 | Step 1000000001 / 1000000001 | TPS 20845.6 | ETA 00:00:00
Average TPS: 20557
---------
-- Neighborlist stats:
120431990 normal updates / 3333334 forced updates / 0 dangerous updates
n_neigh_min: 0 / n_neigh_max: 14 / n_neigh_avg: 10.7576
shortest rebuild period: 5
-- Cell list stats:
Dimension: 44, 44, 44
n_min    : 0 / n_max: 7 / n_avg: 0.0792402
** run complete **
