HOOMD-blue 2.9.6 CUDA (11.1) SINGLE SSE SSE2 
Compiled: 05/10/21
Copyright (c) 2009-2019 The Regents of the University of Michigan.
-----
You are using HOOMD-blue. Please cite the following:
* J A Anderson, J Glaser, and S C Glotzer. "HOOMD-blue: A Python package for
  high-performance molecular dynamics and hard particle Monte Carlo
  simulations", Computational Materials Science 173 (2020) 109363
-----
HOOMD-blue is running on the following GPU(s):
 [0] NVIDIA A100-SXM4-80GB 108 SM_8.0 @ 1.41 GHz, 81050 MiB DRAM, MNG
Running on the GPU
Charges (in mV) are:
[-54.0, 44.0]
[95.0, 105.0]
Particle types: ['N', 'P']
Radius of N, P and ionic radii(s):  [95.0, 105.0, 99.75]
radiusN: 95.0
radiusP: 105.0
Electrostatic prefactors are:  {('N', 'N'): 299.83507046393714, ('N', 'P'): -256.52556028581284, ('P', 'P'): 220.02192305215914}
Steric prefactors are:  {('N', 'N'): 368.3741785809289, ('N', 'P'): 387.76229324308304, ('P', 'P'): 407.15040790523716}
Lattice_type:  sc
Lattice site is: P
Putting satellite particles at a distance of 286.000000 from center particles
num_satellite_per_center: 1
snapshot_creation.py:075  |      center_unit_cell = lattice(a=lattice_spacing*2*radius_latticesite)
center_in_uc: 1
satellite_in_uc: 1
Total number of particles in each unit cell: 2
Total lattice spacing: 885.78
Setting mass N: 0.740633 (mass P: 1.000000)
['P', 'N']
Total number of lattice sites: 6750
[[-6200.45996094 -6200.45996094 -6200.45996094]
 [-6200.45996094 -5914.45996094 -6200.45996094]
 [-6200.45996094 -6200.45996094 -5314.68017578]
 ...
 [ 6200.45947266  6486.46044922  5314.68017578]
 [ 6200.45947266  6200.45947266  6200.45947266]
 [ 6200.45947266  6486.46044922  6200.45947266]]
Seed positions:
None
snapshot_creation.py:172  |      system=hoomd.init.read_snapshot(snapshot)
notice(2): Group "all" created containing 6750 particles
Box size:
Box: Lx=13286.7001953125 Ly=13286.7001953125 Lz=13286.7001953125 xy=0.0 xz=0.0 yz=0.0 dimensions=3
max_x,max_y,max_z
6643.35009765625 6643.35009765625 6643.35009765625
snapshot_creation.py:183  |          hoomd.update.box_resize(Lx = 2.*max_x+8*max_radius, Ly = 2.*max_y+8*max_radius, Lz=2.*max_z+8*max_radius, period=None,scale_particles=False)
Updated box size in presence of closed walls:
Box: Lx=14126.7001953125 Ly=14126.7001953125 Lz=14126.7001953125 xy=0.0 xz=0.0 yz=0.0 dimensions=3
Number of particles in system before adding any seed crystal:  6750
Removing lattice particles that overlap with particles of the seed crystal.........
add_interactions.py:006  |  nl = hoomd.md.nlist.cell()
add_interactions.py:007  |  nl.reset_exclusions(exclusions = ['1-2', 'body','constraint'])
notice(2): -- Neighborlist exclusion statistics -- :
notice(2): Particles with 0 exclusions             : 6750
notice(2): Neighbors included by diameter          : no
notice(2): Neighbors excluded when in the same body: no
Turning on closed walls along x/y/z with max_z: 7063.35009765625
add_interactions.py:032  |      wall_force = hoomd.md.wall.slj(wall_group,r_cut=max_radius*(2.0**(1.0/6.0)))
notice(2): Notice: slj set d_max=210.0
add_interactions.py:033  |      wall_force.force_coeff.set('N',epsilon=1,sigma=radiusN,alpha=0,r_cut=radiusN*(2.0**(1.0/6.0)))
add_interactions.py:034  |      wall_force.force_coeff.set('P',epsilon=1,sigma=radiusP,alpha=0,r_cut=radiusP*(2.0**(1.0/6.0)))
add_interactions.py:057  |  table = hoomd.md.pair.table(width=5000,nlist=nl)
*******************************************************************************************************************************************************************************
Setting potential for pair ('N', 'N') with radius_sum 190.0
add_interactions.py:080  |          table.pair_coeff.set(typei,typej, func=screened_potential_shifted_force,rmin=1.00005*radius_sum, rmax=potential_range,coeff=dict(radius_sum=radius_sum, steric_prefactor=steric_prefactors[key],electrostatic_prefactor=electrostatic_prefactors[key],H=sum_brush_lengths,d=debye_length),)
*******************************************************************************************************************************************************************************
Setting potential for pair ('N', 'P') with radius_sum 200.0
add_interactions.py:080  |          table.pair_coeff.set(typei,typej, func=screened_potential_shifted_force,rmin=1.00005*radius_sum, rmax=potential_range,coeff=dict(radius_sum=radius_sum, steric_prefactor=steric_prefactors[key],electrostatic_prefactor=electrostatic_prefactors[key],H=sum_brush_lengths,d=debye_length),)
*******************************************************************************************************************************************************************************
Setting potential for pair ('P', 'P') with radius_sum 210.0
add_interactions.py:080  |          table.pair_coeff.set(typei,typej, func=screened_potential_shifted_force,rmin=1.00005*radius_sum, rmax=potential_range,coeff=dict(radius_sum=radius_sum, steric_prefactor=steric_prefactors[key],electrostatic_prefactor=electrostatic_prefactors[key],H=sum_brush_lengths,d=debye_length),)
i,j,key,potential_min, potential_min_location
(0, 0, ('N', 'N'), 0.0, 294.54399999999976)
(0, 1, ('N', 'P'), -6.700219689014544, 218.55433160000524)
(1, 1, ('P', 'P'), 0.0, 314.54400000005916)
run_dlvo_spheres_metal.py:011  |  all = hoomd.group.all()
run_dlvo_spheres_metal.py:000  |  from add_interactions import *

if temperature.find(':')>0:
    temp_list = np.array( temperature.split(':') ,dtype=float)
    assert len(temp_list)%2==0 and len(temp_list)>=0,"must give an even number of temperature arguments"
    temp_list = [tuple(x) for x in temp_list.reshape((-1,2))]
    temperature = hoomd.variant.linear_interp(points=temp_list)
else:
    temperature = float(temperature)

all = hoomd.group.all()


hoomd.analyze.log(filename=outputlogfile,
mode: langevin
run_dlvo_spheres_metal.py:029  |      hoomd.md.integrate.mode_standard(dt=dt)
run_dlvo_spheres_metal.py:030  |      ld=hoomd.md.integrate.langevin(group=all, kT=temperature, seed=seed)
notice(2): integrate.langevin/bd is using specified gamma values
Using gamma value as: 0.001
run_dlvo_spheres_metal.py:033  |          ld.set_gamma(particle_type,gamma)
run_dlvo_spheres_metal.py:033  |          ld.set_gamma(particle_type,gamma)
run_dlvo_spheres_metal.py:057  |  hoomd.dump.gsd(outputgsdfile, period=dump_frequency, group=all, overwrite=True,dynamic=['attribute','momentum','topology'])
run_dlvo_spheres_metal.py:058  |  hoomd.run(nsteps)
** starting run **
Time 00:00:10 | Step 198290 / 1000000001 | TPS 19829 | ETA 14:00:21
Time 00:00:20 | Step 399421 / 1000000001 | TPS 20113.1 | ETA 13:48:18
Time 00:00:30 | Step 596909 / 1000000001 | TPS 19748.7 | ETA 14:03:26
Time 00:00:40 | Step 795158 / 1000000001 | TPS 19824.9 | ETA 14:00:01
Time 00:00:50 | Step 994845 / 1000000001 | TPS 19968.6 | ETA 13:53:48
Time 00:01:00 | Step 1195039 / 1000000001 | TPS 20019.4 | ETA 13:51:31
Time 00:01:10 | Step 1396085 / 1000000001 | TPS 20104.6 | ETA 13:47:50
Time 00:01:20 | Step 1597279 / 1000000001 | TPS 20119.4 | ETA 13:47:03
Time 00:01:30 | Step 1796763 / 1000000001 | TPS 19948.3 | ETA 13:53:59
Time 00:01:40 | Step 1997752 / 1000000001 | TPS 20098.9 | ETA 13:47:34
Time 00:01:50 | Step 2197403 / 1000000001 | TPS 19965.1 | ETA 13:52:57
Time 00:02:00 | Step 2396789 / 1000000001 | TPS 19938.6 | ETA 13:53:53
Time 00:02:10 | Step 2597460 / 1000000001 | TPS 20067 | ETA 13:48:23
Time 00:02:20 | Step 2798621 / 1000000001 | TPS 20116.1 | ETA 13:46:12
Time 00:02:30 | Step 2998351 / 1000000001 | TPS 19973 | ETA 13:51:57
Time 00:02:40 | Step 3197079 / 1000000001 | TPS 19872.8 | ETA 13:55:59
Time 00:02:50 | Step 3396285 / 1000000001 | TPS 19920.5 | ETA 13:53:48
Time 00:03:00 | Step 3593933 / 1000000001 | TPS 19764.8 | ETA 14:00:13
Time 00:03:10 | Step 3796187 / 1000000001 | TPS 20225.3 | ETA 13:40:55
Time 00:03:20 | Step 3998409 / 1000000001 | TPS 20222.1 | ETA 13:40:53
Time 00:03:30 | Step 4199874 / 1000000001 | TPS 20146.5 | ETA 13:43:48
Time 00:03:40 | Step 4400473 / 1000000001 | TPS 20059.7 | ETA 13:47:11
Time 00:03:50 | Step 4601197 / 1000000001 | TPS 20072.3 | ETA 13:46:30
Time 00:04:00 | Step 4801319 / 1000000001 | TPS 20012.1 | ETA 13:48:49
Time 00:04:10 | Step 5000719 / 1000000001 | TPS 19940 | ETA 13:51:39
Time 00:04:20 | Step 5199328 / 1000000001 | TPS 19860.8 | ETA 13:54:48
Time 00:04:30 | Step 5397368 / 1000000001 | TPS 19804 | ETA 13:57:02
Time 00:04:40 | Step 5596196 / 1000000001 | TPS 19882.8 | ETA 13:53:33
Time 00:04:50 | Step 5798158 / 1000000001 | TPS 20196.2 | ETA 13:40:27
Time 00:05:00 | Step 6000159 / 1000000001 | TPS 20200 | ETA 13:40:07
Time 00:05:10 | Step 6198964 / 1000000001 | TPS 19880.5 | ETA 13:53:08
Time 00:05:20 | Step 6398505 / 1000000001 | TPS 19953.9 | ETA 13:49:54
Time 00:05:30 | Step 6598437 / 1000000001 | TPS 19993.1 | ETA 13:48:07
Time 00:05:40 | Step 6798409 / 1000000001 | TPS 19997.1 | ETA 13:47:47
Time 00:05:50 | Step 6998775 / 1000000001 | TPS 20036.5 | ETA 13:45:59
Time 00:06:00 | Step 7198736 / 1000000001 | TPS 19996.1 | ETA 13:47:29
Time 00:06:10 | Step 7399609 / 1000000001 | TPS 20087.2 | ETA 13:43:34
Time 00:06:20 | Step 7600541 / 1000000001 | TPS 20093.1 | ETA 13:43:09
Time 00:06:30 | Step 7802101 / 1000000001 | TPS 20155.5 | ETA 13:40:27
Time 00:06:40 | Step 8003139 / 1000000001 | TPS 20103.8 | ETA 13:42:23
Time 00:06:50 | Step 8202286 / 1000000001 | TPS 19914.7 | ETA 13:50:02
Time 00:07:00 | Step 8402213 / 1000000001 | TPS 19992.7 | ETA 13:46:38
Time 00:07:10 | Step 8603402 / 1000000001 | TPS 20118.9 | ETA 13:41:16
Time 00:07:20 | Step 8804177 / 1000000001 | TPS 20077.5 | ETA 13:42:48
Time 00:07:30 | Step 9003973 / 1000000001 | TPS 19979.4 | ETA 13:46:40
Time 00:07:40 | Step 9205582 / 1000000001 | TPS 20160.8 | ETA 13:39:04
Time 00:07:50 | Step 9406501 / 1000000001 | TPS 20091.6 | ETA 13:41:43
Time 00:08:00 | Step 9604202 / 1000000001 | TPS 19770.1 | ETA 13:54:55
Time 00:08:10 | Step 9801581 / 1000000001 | TPS 19737.9 | ETA 13:56:07
Time 00:08:20 | Step 10000686 / 1000000001 | TPS 19910.5 | ETA 13:48:42
Time 00:08:30 | Step 10200438 / 1000000001 | TPS 19975.2 | ETA 13:45:51
Time 00:08:40 | Step 10397943 / 1000000001 | TPS 19750.4 | ETA 13:55:05
Time 00:08:50 | Step 10596290 / 1000000001 | TPS 19834.6 | ETA 13:51:22
Time 00:09:00 | Step 10794893 / 1000000001 | TPS 19860.3 | ETA 13:50:08
Time 00:09:10 | Step 10994907 / 1000000001 | TPS 20001.4 | ETA 13:44:06
Time 00:09:20 | Step 11194901 / 1000000001 | TPS 19999.4 | ETA 13:44:01
Time 00:09:30 | Step 11393119 / 1000000001 | TPS 19821.6 | ETA 13:51:15
Time 00:09:40 | Step 11589846 / 1000000001 | TPS 19672.7 | ETA 13:57:22
Time 00:09:50 | Step 11784525 / 1000000001 | TPS 19467.8 | ETA 14:06:01
Time 00:10:00 | Step 11978745 / 1000000001 | TPS 19422 | ETA 14:07:51
Time 00:10:10 | Step 12176989 / 1000000001 | TPS 19824.4 | ETA 13:50:28
Time 00:10:20 | Step 12377558 / 1000000001 | TPS 20056.7 | ETA 13:40:41
Time 00:10:30 | Step 12574728 / 1000000001 | TPS 19716.9 | ETA 13:54:40
Time 00:10:40 | Step 12773748 / 1000000001 | TPS 19902 | ETA 13:46:44
Time 00:10:50 | Step 12974997 / 1000000001 | TPS 20124.9 | ETA 13:37:25
Time 00:11:00 | Step 13175768 / 1000000001 | TPS 20077.1 | ETA 13:39:11
Time 00:11:10 | Step 13375845 / 1000000001 | TPS 20007.7 | ETA 13:41:52
Time 00:11:20 | Step 13577214 / 1000000001 | TPS 20136.9 | ETA 13:36:25
Time 00:11:30 | Step 13775189 / 1000000001 | TPS 19797.4 | ETA 13:50:15
Time 00:11:40 | Step 13974132 / 1000000001 | TPS 19894.3 | ETA 13:46:03
Time 00:11:50 | Step 14167898 / 1000000001 | TPS 19376.6 | ETA 14:07:57
Time 00:12:00 | Step 14366511 / 1000000001 | TPS 19861.3 | ETA 13:47:05
Time 00:12:10 | Step 14562292 / 1000000001 | TPS 19578.1 | ETA 13:58:53
Time 00:12:20 | Step 14755937 / 1000000001 | TPS 19364.5 | ETA 14:07:58
Time 00:12:30 | Step 14945655 / 1000000001 | TPS 18971.8 | ETA 14:25:22
Time 00:12:40 | Step 15136543 / 1000000001 | TPS 19088.8 | ETA 14:19:53
Time 00:12:50 | Step 15329375 / 1000000001 | TPS 19283.1 | ETA 14:11:03
Time 00:13:00 | Step 15525193 / 1000000001 | TPS 19581.6 | ETA 13:57:55
Time 00:13:10 | Step 15722186 / 1000000001 | TPS 19699.2 | ETA 13:52:45
Time 00:13:20 | Step 15919516 / 1000000001 | TPS 19733 | ETA 13:51:09
Time 00:13:30 | Step 16116159 / 1000000001 | TPS 19664.2 | ETA 13:53:54
Time 00:13:40 | Step 16309612 / 1000000001 | TPS 19345.3 | ETA 14:07:29
Time 00:13:50 | Step 16501727 / 1000000001 | TPS 19211.5 | ETA 14:13:13
Time 00:14:00 | Step 16697800 / 1000000001 | TPS 19607.1 | ETA 13:55:50
Time 00:14:10 | Step 16891224 / 1000000001 | TPS 19342.4 | ETA 14:07:06
Time 00:14:20 | Step 17082973 / 1000000001 | TPS 19174.7 | ETA 14:14:21
Time 00:14:30 | Step 17273558 / 1000000001 | TPS 19058.5 | ETA 14:19:23
Time 00:14:40 | Step 17459823 / 1000000001 | TPS 18626.5 | ETA 14:39:09
Time 00:14:50 | Step 17642815 / 1000000001 | TPS 18299.2 | ETA 14:54:43
Time 00:15:00 | Step 17831014 / 1000000001 | TPS 18819.8 | ETA 14:29:48
Time 00:15:10 | Step 18020296 / 1000000001 | TPS 18928.1 | ETA 14:24:39
Time 00:15:20 | Step 18200922 / 1000000001 | TPS 18062.6 | ETA 15:05:55
Time 00:15:30 | Step 18383181 / 1000000001 | TPS 18225.7 | ETA 14:57:38
Time 00:15:40 | Step 18573326 / 1000000001 | TPS 19014.4 | ETA 14:20:14
Time 00:15:50 | Step 18761993 / 1000000001 | TPS 18866.7 | ETA 14:26:49
Time 00:16:00 | Step 18947586 / 1000000001 | TPS 18559.2 | ETA 14:41:00
Time 00:16:10 | Step 19133553 / 1000000001 | TPS 18596.6 | ETA 14:39:04
Time 00:16:20 | Step 19316758 / 1000000001 | TPS 18320.5 | ETA 14:52:09
Time 00:16:30 | Step 19500062 / 1000000001 | TPS 18330.3 | ETA 14:51:30
Time 00:16:40 | Step 19681355 / 1000000001 | TPS 18129.3 | ETA 15:01:13
Time 00:16:50 | Step 19861943 / 1000000001 | TPS 18058.8 | ETA 15:04:34
Time 00:17:00 | Step 20041137 / 1000000001 | TPS 17919.3 | ETA 15:11:27
Time 00:17:10 | Step 20223298 / 1000000001 | TPS 18216 | ETA 14:56:26
Time 00:17:20 | Step 20404034 / 1000000001 | TPS 18073.6 | ETA 15:03:20
Time 00:17:30 | Step 20583487 / 1000000001 | TPS 17945.1 | ETA 15:09:38
Time 00:17:40 | Step 20763246 / 1000000001 | TPS 17975.9 | ETA 15:07:55
Time 00:17:50 | Step 20945401 / 1000000001 | TPS 18215.3 | ETA 14:55:49
Time 00:18:00 | Step 21125020 / 1000000001 | TPS 17961.8 | ETA 15:08:17
Time 00:18:10 | Step 21306184 / 1000000001 | TPS 18116.3 | ETA 15:00:22
Time 00:18:20 | Step 21489839 / 1000000001 | TPS 18365.5 | ETA 14:47:59
Time 00:18:30 | Step 21672504 / 1000000001 | TPS 18266.4 | ETA 14:52:38
Time 00:18:40 | Step 21855997 / 1000000001 | TPS 18349.2 | ETA 14:48:27
Time 00:18:50 | Step 22035454 / 1000000001 | TPS 17945.6 | ETA 15:08:15
Time 00:19:00 | Step 22212113 / 1000000001 | TPS 17665.9 | ETA 15:22:28
Time 00:19:10 | Step 22386931 / 1000000001 | TPS 17481.8 | ETA 15:32:01
Time 00:19:20 | Step 22561444 / 1000000001 | TPS 17451.3 | ETA 15:33:29
Time 00:19:30 | Step 22737321 / 1000000001 | TPS 17587.7 | ETA 15:26:05
Time 00:19:40 | Step 22911659 / 1000000001 | TPS 17433.8 | ETA 15:34:05
Time 00:19:50 | Step 23086071 / 1000000001 | TPS 17441.1 | ETA 15:33:32
Time 00:20:00 | Step 23263837 / 1000000001 | TPS 17776.6 | ETA 15:15:45
Time 00:20:10 | Step 23439962 / 1000000001 | TPS 17612.5 | ETA 15:24:07
Time 00:20:20 | Step 23615857 / 1000000001 | TPS 17589.4 | ETA 15:25:09
Time 00:20:30 | Step 23795506 / 1000000001 | TPS 17964.9 | ETA 15:05:39
Time 00:20:40 | Step 23972666 / 1000000001 | TPS 17716 | ETA 15:18:13
Time 00:20:50 | Step 24148647 / 1000000001 | TPS 17598 | ETA 15:24:12
Time 00:21:00 | Step 24324790 / 1000000001 | TPS 17614.3 | ETA 15:23:11
Time 00:21:10 | Step 24501273 / 1000000001 | TPS 17648.3 | ETA 15:21:14
Time 00:21:20 | Step 24680692 / 1000000001 | TPS 17941.9 | ETA 15:05:59
Time 00:21:30 | Step 24861797 / 1000000001 | TPS 18110.4 | ETA 14:57:23
Time 00:21:40 | Step 25043113 / 1000000001 | TPS 18131.5 | ETA 14:56:11
Time 00:21:50 | Step 25225197 / 1000000001 | TPS 18208.3 | ETA 14:52:14
Time 00:22:00 | Step 25405492 / 1000000001 | TPS 18029.4 | ETA 15:00:55
Time 00:22:10 | Step 25583498 / 1000000001 | TPS 17800.6 | ETA 15:12:20
Time 00:22:20 | Step 25761093 / 1000000001 | TPS 17759.4 | ETA 15:14:17
Time 00:22:30 | Step 25938212 / 1000000001 | TPS 17711.8 | ETA 15:16:34
Time 00:22:40 | Step 26116206 / 1000000001 | TPS 17799.4 | ETA 15:11:54
Time 00:22:50 | Step 26296345 / 1000000001 | TPS 18013.8 | ETA 15:00:53
Time 00:23:00 | Step 26473476 / 1000000001 | TPS 17713.1 | ETA 15:16:00
Time 00:23:10 | Step 26654165 / 1000000001 | TPS 18068.8 | ETA 14:57:48
Time 00:23:20 | Step 26836016 / 1000000001 | TPS 18185 | ETA 14:51:54
Time 00:23:30 | Step 27010876 / 1000000001 | TPS 17486 | ETA 15:27:24
Time 00:23:40 | Step 27186670 / 1000000001 | TPS 17579.4 | ETA 15:22:18
Time 00:23:50 | Step 27362341 / 1000000001 | TPS 17567 | ETA 15:22:47
Time 00:24:00 | Step 27540009 / 1000000001 | TPS 17766.8 | ETA 15:12:14
Time 00:24:10 | Step 27716809 / 1000000001 | TPS 17679.9 | ETA 15:16:33
Time 00:24:20 | Step 27894179 / 1000000001 | TPS 17736.9 | ETA 15:13:26
Time 00:24:30 | Step 28072442 / 1000000001 | TPS 17826.2 | ETA 15:08:42
Time 00:24:40 | Step 28249311 / 1000000001 | TPS 17686.9 | ETA 15:15:41
Time 00:24:50 | Step 28427582 / 1000000001 | TPS 17827.1 | ETA 15:08:19
Time 00:25:00 | Step 28607553 / 1000000001 | TPS 17997.1 | ETA 14:59:35
Time 00:25:10 | Step 28784358 / 1000000001 | TPS 17680.4 | ETA 15:15:31
Time 00:25:20 | Step 28962346 / 1000000001 | TPS 17798.7 | ETA 15:09:16
Time 00:25:30 | Step 29138489 / 1000000001 | TPS 17614.3 | ETA 15:18:37
Time 00:25:40 | Step 29313456 / 1000000001 | TPS 17496.6 | ETA 15:24:38
Time 00:25:50 | Step 29488105 / 1000000001 | TPS 17464.8 | ETA 15:26:09
Time 00:26:00 | Step 29663401 / 1000000001 | TPS 17529.2 | ETA 15:22:35
Time 00:26:10 | Step 29838652 / 1000000001 | TPS 17525 | ETA 15:22:38
Time 00:26:20 | Step 30014289 / 1000000001 | TPS 17563.6 | ETA 15:20:26
Time 00:26:30 | Step 30189168 / 1000000001 | TPS 17487.9 | ETA 15:24:16
Time 00:26:40 | Step 30363173 / 1000000001 | TPS 17400.4 | ETA 15:28:44
Time 00:26:50 | Step 30538771 / 1000000001 | TPS 17559.7 | ETA 15:20:09
Time 00:27:00 | Step 30713468 / 1000000001 | TPS 17469.7 | ETA 15:24:43
Time 00:27:10 | Step 30890010 / 1000000001 | TPS 17654.2 | ETA 15:14:54
Time 00:27:20 | Step 31064268 / 1000000001 | TPS 17425.7 | ETA 15:26:43
Time 00:27:30 | Step 31240968 / 1000000001 | TPS 17670 | ETA 15:13:45
Time 00:27:40 | Step 31417315 / 1000000001 | TPS 17634.6 | ETA 15:15:24
Time 00:27:50 | Step 31592632 / 1000000001 | TPS 17531.7 | ETA 15:20:37
Time 00:28:00 | Step 31769855 / 1000000001 | TPS 17722.3 | ETA 15:10:33
Time 00:28:10 | Step 31946401 / 1000000001 | TPS 17654.6 | ETA 15:13:53
Time 00:28:20 | Step 32121009 / 1000000001 | TPS 17460.7 | ETA 15:23:51
Time 00:28:30 | Step 32294774 / 1000000001 | TPS 17376.4 | ETA 15:28:10
Time 00:28:40 | Step 32468308 / 1000000001 | TPS 17353.3 | ETA 15:29:14
Time 00:28:50 | Step 32642509 / 1000000001 | TPS 17420 | ETA 15:25:31
Time 00:29:00 | Step 32817478 / 1000000001 | TPS 17496.9 | ETA 15:21:17
Time 00:29:10 | Step 32991977 / 1000000001 | TPS 17449.8 | ETA 15:23:36
Time 00:29:20 | Step 33166447 / 1000000001 | TPS 17446.8 | ETA 15:23:36
Time 00:29:30 | Step 33340228 / 1000000001 | TPS 17378.1 | ETA 15:27:05
Time 00:29:40 | Step 33514394 / 1000000001 | TPS 17416.5 | ETA 15:24:52
Time 00:29:50 | Step 33688969 / 1000000001 | TPS 17457.5 | ETA 15:22:32
Time 00:30:00 | Step 33863730 / 1000000001 | TPS 17476 | ETA 15:21:23
Time 00:30:10 | Step 34037795 / 1000000001 | TPS 17406.4 | ETA 15:24:54
Time 00:30:20 | Step 34211535 / 1000000001 | TPS 17374 | ETA 15:26:28
Time 00:30:30 | Step 34386794 / 1000000001 | TPS 17525.9 | ETA 15:18:16
Time 00:30:40 | Step 34561439 / 1000000001 | TPS 17464.4 | ETA 15:21:20
Time 00:30:50 | Step 34734587 / 1000000001 | TPS 17314.8 | ETA 15:29:08
Time 00:31:00 | Step 34910209 / 1000000001 | TPS 17562 | ETA 15:15:53
Time 00:31:10 | Step 35086548 / 1000000001 | TPS 17633.8 | ETA 15:11:59
Time 00:31:20 | Step 35261245 / 1000000001 | TPS 17469.7 | ETA 15:20:23
Time 00:31:30 | Step 35435600 / 1000000001 | TPS 17435.5 | ETA 15:22:01
Time 00:31:40 | Step 35611624 / 1000000001 | TPS 17602.3 | ETA 15:13:07
Time 00:31:50 | Step 35786962 / 1000000001 | TPS 17533.7 | ETA 15:16:31
Time 00:32:00 | Step 35961758 / 1000000001 | TPS 17479.6 | ETA 15:19:12
Time 00:32:10 | Step 36135516 / 1000000001 | TPS 17375.7 | ETA 15:24:31
Time 00:32:20 | Step 36309502 / 1000000001 | TPS 17398.5 | ETA 15:23:09
Time 00:32:30 | Step 36483456 / 1000000001 | TPS 17395.4 | ETA 15:23:09
Time 00:32:40 | Step 36660117 / 1000000001 | TPS 17666.1 | ETA 15:08:50
Time 00:32:50 | Step 36835841 / 1000000001 | TPS 17572.3 | ETA 15:13:31
Time 00:33:00 | Step 37010839 / 1000000001 | TPS 17499.7 | ETA 15:17:08
Time 00:33:10 | Step 37183572 / 1000000001 | TPS 17273.3 | ETA 15:29:00
Time 00:33:20 | Step 37357847 / 1000000001 | TPS 17427.5 | ETA 15:20:37
Time 00:33:30 | Step 37531959 / 1000000001 | TPS 17411.2 | ETA 15:21:18
Time 00:33:40 | Step 37706497 / 1000000001 | TPS 17453.6 | ETA 15:18:54
Time 00:33:50 | Step 37880981 / 1000000001 | TPS 17448.4 | ETA 15:19:00
Time 00:34:00 | Step 38054500 / 1000000001 | TPS 17351.9 | ETA 15:23:57
Time 00:34:10 | Step 38227683 / 1000000001 | TPS 17318.2 | ETA 15:25:35
Time 00:34:20 | Step 38400809 / 1000000001 | TPS 17312.5 | ETA 15:25:43
Time 00:34:30 | Step 38574085 / 1000000001 | TPS 17327.5 | ETA 15:24:45
Time 00:34:40 | Step 38748033 / 1000000001 | TPS 17394.7 | ETA 15:21:01
Time 00:34:50 | Step 38921425 / 1000000001 | TPS 17339.1 | ETA 15:23:48
Time 00:35:00 | Step 39096846 / 1000000001 | TPS 17542.1 | ETA 15:12:57
Time 00:35:10 | Step 39269785 / 1000000001 | TPS 17293.8 | ETA 15:25:53
Time 00:35:20 | Step 39443709 / 1000000001 | TPS 17392.2 | ETA 15:20:29
Time 00:35:30 | Step 39615505 / 1000000001 | TPS 17179.4 | ETA 15:31:43
Time 00:35:40 | Step 39789539 / 1000000001 | TPS 17403.4 | ETA 15:19:33
Time 00:35:50 | Step 39965394 / 1000000001 | TPS 17585.5 | ETA 15:09:52
Time 00:36:00 | Step 40139737 / 1000000001 | TPS 17434.3 | ETA 15:17:35
Time 00:36:10 | Step 40311290 / 1000000001 | TPS 17155.3 | ETA 15:32:21
Time 00:36:20 | Step 40484162 / 1000000001 | TPS 17287.2 | ETA 15:25:04
Time 00:36:30 | Step 40656183 / 1000000001 | TPS 17202 | ETA 15:29:29
Time 00:36:40 | Step 40828038 / 1000000001 | TPS 17185.5 | ETA 15:30:12
Time 00:36:50 | Step 41001863 / 1000000001 | TPS 17382.5 | ETA 15:19:30
Time 00:37:00 | Step 41175486 / 1000000001 | TPS 17362.2 | ETA 15:20:24
Time 00:37:10 | Step 41349078 / 1000000001 | TPS 17359.1 | ETA 15:20:24
Time 00:37:20 | Step 41522702 / 1000000001 | TPS 17362.4 | ETA 15:20:04
Time 00:37:30 | Step 41696383 / 1000000001 | TPS 17368.1 | ETA 15:19:36
Time 00:37:40 | Step 41868810 / 1000000001 | TPS 17242.7 | ETA 15:26:07
Time 00:37:50 | Step 42041033 / 1000000001 | TPS 17222.3 | ETA 15:27:03
Time 00:38:00 | Step 42212982 / 1000000001 | TPS 17194.9 | ETA 15:28:21
Time 00:38:10 | Step 42385390 / 1000000001 | TPS 17240.8 | ETA 15:25:43
Time 00:38:20 | Step 42558172 / 1000000001 | TPS 17278.2 | ETA 15:23:33
Time 00:38:30 | Step 42731117 / 1000000001 | TPS 17294.5 | ETA 15:22:31
Time 00:38:40 | Step 42903989 / 1000000001 | TPS 17287.1 | ETA 15:22:44
Time 00:38:50 | Step 43074473 / 1000000001 | TPS 17048.4 | ETA 15:35:30
Time 00:39:00 | Step 43246278 / 1000000001 | TPS 17180.4 | ETA 15:28:08
Time 00:39:10 | Step 43418521 / 1000000001 | TPS 17224.2 | ETA 15:25:37
Time 00:39:20 | Step 43591317 / 1000000001 | TPS 17279.5 | ETA 15:22:29
Time 00:39:30 | Step 43763430 / 1000000001 | TPS 17211.3 | ETA 15:25:58
Time 00:39:40 | Step 43936685 / 1000000001 | TPS 17325.5 | ETA 15:19:42
Time 00:39:50 | Step 44108230 / 1000000001 | TPS 17154.4 | ETA 15:28:42
Time 00:40:00 | Step 44279562 / 1000000001 | TPS 17133.2 | ETA 15:29:41
Time 00:40:10 | Step 44450977 / 1000000001 | TPS 17141.5 | ETA 15:29:04
Time 00:40:20 | Step 44622853 / 1000000001 | TPS 17187.5 | ETA 15:26:25
Time 00:40:30 | Step 44796183 / 1000000001 | TPS 17333 | ETA 15:18:28
Time 00:40:40 | Step 44968814 / 1000000001 | TPS 17263.1 | ETA 15:22:02
Time 00:40:50 | Step 45141171 / 1000000001 | TPS 17235.7 | ETA 15:23:20
Time 00:41:00 | Step 45314557 / 1000000001 | TPS 17338.5 | ETA 15:17:41
Time 00:41:10 | Step 45487045 / 1000000001 | TPS 17248.8 | ETA 15:22:18
Time 00:41:20 | Step 45657855 / 1000000001 | TPS 17080.9 | ETA 15:31:11
Time 00:41:30 | Step 45828886 / 1000000001 | TPS 17103.1 | ETA 15:29:49
Time 00:41:40 | Step 46000904 / 1000000001 | TPS 17201.7 | ETA 15:24:19
Time 00:41:50 | Step 46171969 / 1000000001 | TPS 17106.5 | ETA 15:29:18
Time 00:42:00 | Step 46344831 / 1000000001 | TPS 17286.2 | ETA 15:19:28
Time 00:42:10 | Step 46518431 / 1000000001 | TPS 17360 | ETA 15:15:24
Time 00:42:20 | Step 46690393 / 1000000001 | TPS 17196.1 | ETA 15:23:57
Time 00:42:30 | Step 46863304 / 1000000001 | TPS 17291.1 | ETA 15:18:42
Time 00:42:40 | Step 47036378 / 1000000001 | TPS 17307.4 | ETA 15:17:41
Time 00:42:50 | Step 47207271 / 1000000001 | TPS 17089.3 | ETA 15:29:13
Time 00:43:00 | Step 47379705 / 1000000001 | TPS 17243.3 | ETA 15:20:45
Time 00:43:10 | Step 47552666 / 1000000001 | TPS 17296.1 | ETA 15:17:47
Time 00:43:20 | Step 47725864 / 1000000001 | TPS 17319.8 | ETA 15:16:21
Time 00:43:30 | Step 47898368 / 1000000001 | TPS 17250.3 | ETA 15:19:53
Time 00:43:40 | Step 48071513 / 1000000001 | TPS 17314.3 | ETA 15:16:19
Time 00:43:50 | Step 48243595 / 1000000001 | TPS 17208.2 | ETA 15:21:48
Time 00:44:00 | Step 48417054 / 1000000001 | TPS 17345.8 | ETA 15:14:19
Time 00:44:10 | Step 48590746 / 1000000001 | TPS 17369.2 | ETA 15:12:55
Time 00:44:20 | Step 48763078 / 1000000001 | TPS 17233.2 | ETA 15:19:58
Time 00:44:30 | Step 48934218 / 1000000001 | TPS 17114 | ETA 15:26:12
Time 00:44:40 | Step 49105970 / 1000000001 | TPS 17175.2 | ETA 15:22:44
Time 00:44:50 | Step 49278208 / 1000000001 | TPS 17223.7 | ETA 15:19:58
Time 00:45:00 | Step 49450121 / 1000000001 | TPS 17191.3 | ETA 15:21:32
Time 00:45:10 | Step 49621808 / 1000000001 | TPS 17168.6 | ETA 15:22:35
Time 00:45:20 | Step 49794857 / 1000000001 | TPS 17304.8 | ETA 15:15:09
Time 00:45:30 | Step 49966784 / 1000000001 | TPS 17192.7 | ETA 15:20:58
Time 00:45:40 | Step 50140363 / 1000000001 | TPS 17357.8 | ETA 15:12:02
Time 00:45:50 | Step 50312366 / 1000000001 | TPS 17200.3 | ETA 15:20:13
Time 00:46:00 | Step 50485628 / 1000000001 | TPS 17326.1 | ETA 15:13:22
Time 00:46:10 | Step 50657837 / 1000000001 | TPS 17220.7 | ETA 15:18:47
Time 00:46:20 | Step 50830057 / 1000000001 | TPS 17222 | ETA 15:18:33
Time 00:46:30 | Step 51002635 / 1000000001 | TPS 17257.8 | ETA 15:16:29
Time 00:46:40 | Step 51174670 / 1000000001 | TPS 17203.3 | ETA 15:19:13
Time 00:46:50 | Step 51345535 / 1000000001 | TPS 17086.5 | ETA 15:25:20
Time 00:47:00 | Step 51516473 / 1000000001 | TPS 17093.6 | ETA 15:24:47
Time 00:47:10 | Step 51688636 / 1000000001 | TPS 17216.2 | ETA 15:18:02
Time 00:47:20 | Step 51860287 / 1000000001 | TPS 17165.1 | ETA 15:20:36
Time 00:47:30 | Step 52032352 / 1000000001 | TPS 17206.4 | ETA 15:18:13
Time 00:47:40 | Step 52205617 / 1000000001 | TPS 17326.5 | ETA 15:11:42
Time 00:47:50 | Step 52378132 / 1000000001 | TPS 17251.4 | ETA 15:15:30
Time 00:48:00 | Step 52549304 / 1000000001 | TPS 17117.2 | ETA 15:22:30
Time 00:48:10 | Step 52720193 / 1000000001 | TPS 17088.8 | ETA 15:23:52
Time 00:48:20 | Step 52891204 / 1000000001 | TPS 17101.1 | ETA 15:23:02
Time 00:48:30 | Step 53062080 / 1000000001 | TPS 17087.5 | ETA 15:23:36
Time 00:48:40 | Step 53232086 / 1000000001 | TPS 17000.6 | ETA 15:28:10
Time 00:48:50 | Step 53403736 / 1000000001 | TPS 17164.9 | ETA 15:19:07
Time 00:49:00 | Step 53576403 / 1000000001 | TPS 17266.6 | ETA 15:13:32
Time 00:49:10 | Step 53748414 / 1000000001 | TPS 17201.1 | ETA 15:16:51
Time 00:49:20 | Step 53920253 / 1000000001 | TPS 17183.9 | ETA 15:17:36
Time 00:49:30 | Step 54091440 / 1000000001 | TPS 17118.7 | ETA 15:20:55
Time 00:49:40 | Step 54261884 / 1000000001 | TPS 17044.4 | ETA 15:24:46
Time 00:49:50 | Step 54432765 / 1000000001 | TPS 17088.1 | ETA 15:22:14
Time 00:50:00 | Step 54604201 / 1000000001 | TPS 17143.3 | ETA 15:19:06
Time 00:50:10 | Step 54776277 / 1000000001 | TPS 17207.5 | ETA 15:15:30
Time 00:50:20 | Step 54948761 / 1000000001 | TPS 17248.4 | ETA 15:13:10
Time 00:50:30 | Step 55121022 / 1000000001 | TPS 17226 | ETA 15:14:11
Time 00:50:40 | Step 55293766 / 1000000001 | TPS 17274.4 | ETA 15:11:28
Time 00:50:50 | Step 55464638 / 1000000001 | TPS 17087.2 | ETA 15:21:17
Time 00:51:00 | Step 55637008 / 1000000001 | TPS 17236.9 | ETA 15:13:07
Time 00:51:10 | Step 55808425 / 1000000001 | TPS 17141.7 | ETA 15:18:01
Time 00:51:20 | Step 55980126 / 1000000001 | TPS 17170 | ETA 15:16:20
Time 00:51:30 | Step 56150741 / 1000000001 | TPS 17061.4 | ETA 15:22:00
Time 00:51:40 | Step 56323358 / 1000000001 | TPS 17261.6 | ETA 15:11:09
Time 00:51:50 | Step 56494239 / 1000000001 | TPS 17088.1 | ETA 15:20:14
Time 00:52:00 | Step 56665988 / 1000000001 | TPS 17174.9 | ETA 15:15:25
Time 00:52:10 | Step 56839004 / 1000000001 | TPS 17301.6 | ETA 15:08:33
Time 00:52:20 | Step 57011360 / 1000000001 | TPS 17235.5 | ETA 15:11:51
Time 00:52:30 | Step 57183503 / 1000000001 | TPS 17214.3 | ETA 15:12:49
Time 00:52:40 | Step 57355431 / 1000000001 | TPS 17192.7 | ETA 15:13:48
Time 00:52:50 | Step 57526249 / 1000000001 | TPS 17081.6 | ETA 15:19:34
Time 00:53:00 | Step 57696432 / 1000000001 | TPS 17018.2 | ETA 15:22:50
Time 00:53:10 | Step 57868300 / 1000000001 | TPS 17186.8 | ETA 15:13:37
Time 00:53:20 | Step 58040417 / 1000000001 | TPS 17211.7 | ETA 15:12:07
Time 00:53:30 | Step 58212371 / 1000000001 | TPS 17195.3 | ETA 15:12:49
Time 00:53:40 | Step 58384223 / 1000000001 | TPS 17185.2 | ETA 15:13:12
Time 00:53:50 | Step 58557048 / 1000000001 | TPS 17282.4 | ETA 15:07:53
Time 00:54:00 | Step 58729058 / 1000000001 | TPS 17200.9 | ETA 15:12:02
Time 00:54:10 | Step 58901441 / 1000000001 | TPS 17238.3 | ETA 15:09:53
Time 00:54:20 | Step 59074145 / 1000000001 | TPS 17270.4 | ETA 15:08:02
Time 00:54:30 | Step 59246129 / 1000000001 | TPS 17198.4 | ETA 15:11:40
Time 00:54:40 | Step 59418599 / 1000000001 | TPS 17247 | ETA 15:08:55
Time 00:54:50 | Step 59589547 / 1000000001 | TPS 17094.8 | ETA 15:16:51
Time 00:55:00 | Step 59762004 / 1000000001 | TPS 17245.7 | ETA 15:08:40
Time 00:55:10 | Step 59935667 / 1000000001 | TPS 17366.3 | ETA 15:02:11
Time 00:55:20 | Step 60108977 / 1000000001 | TPS 17331 | ETA 15:03:51
Time 00:55:30 | Step 60281224 / 1000000001 | TPS 17224.7 | ETA 15:09:16
Time 00:55:40 | Step 60452209 / 1000000001 | TPS 17098.5 | ETA 15:15:49
Time 00:55:50 | Step 60623060 / 1000000001 | TPS 17085.1 | ETA 15:16:22
Time 00:56:00 | Step 60793025 / 1000000001 | TPS 16996.4 | ETA 15:20:59
Time 00:56:10 | Step 60964360 / 1000000001 | TPS 17133.5 | ETA 15:13:27
Time 00:56:20 | Step 61135227 / 1000000001 | TPS 17086.6 | ETA 15:15:47
Time 00:56:30 | Step 61307453 / 1000000001 | TPS 17222.5 | ETA 15:08:23
Time 00:56:40 | Step 61479443 / 1000000001 | TPS 17199 | ETA 15:09:28
Time 00:56:50 | Step 61650449 / 1000000001 | TPS 17100.5 | ETA 15:14:32
Time 00:57:00 | Step 61821811 / 1000000001 | TPS 17136.1 | ETA 15:12:28
Time 00:57:10 | Step 61991674 / 1000000001 | TPS 16986.3 | ETA 15:20:21
Time 00:57:20 | Step 62162822 / 1000000001 | TPS 17114.7 | ETA 15:13:17
Time 00:57:30 | Step 62333385 / 1000000001 | TPS 17056.2 | ETA 15:16:15
Time 00:57:40 | Step 62504249 / 1000000001 | TPS 17086.4 | ETA 15:14:28
Time 00:57:50 | Step 62674841 / 1000000001 | TPS 17059.2 | ETA 15:15:45
Time 00:58:00 | Step 62845913 / 1000000001 | TPS 17107.2 | ETA 15:13:01
Time 00:58:10 | Step 63016522 / 1000000001 | TPS 17060.9 | ETA 15:15:19
Time 00:58:20 | Step 63185756 / 1000000001 | TPS 16923.4 | ETA 15:22:36
Time 00:58:30 | Step 63358006 / 1000000001 | TPS 17224.8 | ETA 15:06:17
Time 00:58:40 | Step 63528640 / 1000000001 | TPS 17063.4 | ETA 15:14:41
Time 00:58:50 | Step 63699421 / 1000000001 | TPS 17078.1 | ETA 15:13:44
Time 00:59:00 | Step 63870265 / 1000000001 | TPS 17084.2 | ETA 15:13:14
Time 00:59:10 | Step 64040536 / 1000000001 | TPS 17027.1 | ETA 15:16:08
Time 00:59:20 | Step 64212601 / 1000000001 | TPS 17206.1 | ETA 15:06:26
Time 00:59:30 | Step 64384166 / 1000000001 | TPS 17156.5 | ETA 15:08:54
Time 00:59:40 | Step 64555501 / 1000000001 | TPS 17132.9 | ETA 15:09:59
Time 00:59:50 | Step 64724905 / 1000000001 | TPS 16940.3 | ETA 15:20:09
Time 01:00:00 | Step 64892990 / 1000000001 | TPS 16808.4 | ETA 15:27:13
Time 01:00:10 | Step 65064444 / 1000000001 | TPS 17145.4 | ETA 15:08:49
Time 01:00:20 | Step 65236564 / 1000000001 | TPS 17211.8 | ETA 15:05:09
Time 01:00:30 | Step 65408534 / 1000000001 | TPS 17196.9 | ETA 15:05:46
Time 01:00:40 | Step 65580239 / 1000000001 | TPS 17170.5 | ETA 15:07:00
Time 01:00:50 | Step 65751049 / 1000000001 | TPS 17081 | ETA 15:11:35
Time 01:01:00 | Step 65921603 / 1000000001 | TPS 17055.3 | ETA 15:12:47
Time 01:01:10 | Step 66091466 / 1000000001 | TPS 16986.3 | ETA 15:16:20
Time 01:01:20 | Step 66262124 / 1000000001 | TPS 17065.7 | ETA 15:11:54
Time 01:01:30 | Step 66430361 / 1000000001 | TPS 16823.7 | ETA 15:24:51
Time 01:01:40 | Step 66600617 / 1000000001 | TPS 17025.5 | ETA 15:13:43
Time 01:01:50 | Step 66771237 / 1000000001 | TPS 17062 | ETA 15:11:36
Time 01:02:00 | Step 66942268 / 1000000001 | TPS 17103.1 | ETA 15:09:14
Time 01:02:10 | Step 67112907 / 1000000001 | TPS 17063.9 | ETA 15:11:10
Time 01:02:20 | Step 67284940 / 1000000001 | TPS 17203.3 | ETA 15:03:37
Time 01:02:30 | Step 67456657 / 1000000001 | TPS 17171.7 | ETA 15:05:07
Time 01:02:40 | Step 67628841 / 1000000001 | TPS 17218.4 | ETA 15:02:29
Time 01:02:50 | Step 67800949 / 1000000001 | TPS 17210.8 | ETA 15:02:43
Time 01:03:00 | Step 67972032 / 1000000001 | TPS 17108.2 | ETA 15:07:58
Time 01:03:10 | Step 68141440 / 1000000001 | TPS 16940.8 | ETA 15:16:46
Time 01:03:20 | Step 68310220 / 1000000001 | TPS 16877.9 | ETA 15:20:01
Time 01:03:30 | Step 68478231 / 1000000001 | TPS 16801.1 | ETA 15:24:04
Time 01:03:40 | Step 68649309 / 1000000001 | TPS 17107.8 | ETA 15:07:20
Time 01:03:50 | Step 68820650 / 1000000001 | TPS 17134.1 | ETA 15:05:46
Time 01:04:00 | Step 68991959 / 1000000001 | TPS 17130.7 | ETA 15:05:47
Time 01:04:10 | Step 69163406 / 1000000001 | TPS 17144.6 | ETA 15:04:53
Time 01:04:20 | Step 69333301 / 1000000001 | TPS 16989.1 | ETA 15:13:00
Time 01:04:30 | Step 69503095 / 1000000001 | TPS 16979.4 | ETA 15:13:21
Time 01:04:40 | Step 69673603 / 1000000001 | TPS 17050.7 | ETA 15:09:22
Time 01:04:50 | Step 69845765 / 1000000001 | TPS 17216.2 | ETA 15:00:27
Time 01:05:00 | Step 70017496 / 1000000001 | TPS 17173.1 | ETA 15:02:33
Time 01:05:10 | Step 70189791 / 1000000001 | TPS 17229.4 | ETA 14:59:26
Time 01:05:20 | Step 70361915 / 1000000001 | TPS 17212.4 | ETA 15:00:09
Time 01:05:30 | Step 70532499 / 1000000001 | TPS 17058.3 | ETA 15:08:07
Time 01:05:40 | Step 70703693 / 1000000001 | TPS 17119.4 | ETA 15:04:43
Time 01:05:50 | Step 70875549 / 1000000001 | TPS 17185.5 | ETA 15:01:04
Time 01:06:00 | Step 71045481 / 1000000001 | TPS 16993.2 | ETA 15:11:06
Time 01:06:10 | Step 71217462 / 1000000001 | TPS 17198 | ETA 15:00:05
Time 01:06:20 | Step 71388593 / 1000000001 | TPS 17112.9 | ETA 15:04:23
Time 01:06:30 | Step 71558559 / 1000000001 | TPS 16996.6 | ETA 15:10:25
Time 01:06:40 | Step 71729891 / 1000000001 | TPS 17133.2 | ETA 15:02:59
Time 01:06:50 | Step 71900925 / 1000000001 | TPS 17103.2 | ETA 15:04:24
Time 01:07:00 | Step 72070136 / 1000000001 | TPS 16921.1 | ETA 15:13:58
Time 01:07:10 | Step 72240268 / 1000000001 | TPS 17013.2 | ETA 15:08:51
Time 01:07:20 | Step 72411691 / 1000000001 | TPS 17142.3 | ETA 15:01:51
Time 01:07:30 | Step 72584557 / 1000000001 | TPS 17286.6 | ETA 14:54:09
Time 01:07:40 | Step 72757798 / 1000000001 | TPS 17324 | ETA 14:52:03
Time 01:07:50 | Step 72930141 / 1000000001 | TPS 17234.3 | ETA 14:56:32
Time 01:08:00 | Step 73100140 / 1000000001 | TPS 16999.8 | ETA 15:08:44
Time 01:08:10 | Step 73268947 / 1000000001 | TPS 16880.7 | ETA 15:14:58
Time 01:08:20 | Step 73438454 / 1000000001 | TPS 16950.7 | ETA 15:11:02
Time 01:08:30 | Step 73608989 / 1000000001 | TPS 17053.5 | ETA 15:05:22
Time 01:08:40 | Step 73780334 / 1000000001 | TPS 17134.5 | ETA 15:00:55
Time 01:08:50 | Step 73952011 / 1000000001 | TPS 17167.7 | ETA 14:59:01
Time 01:09:00 | Step 74123143 / 1000000001 | TPS 17113.2 | ETA 15:01:43
Time 01:09:10 | Step 74295982 / 1000000001 | TPS 17283.8 | ETA 14:52:38
Time 01:09:20 | Step 74468002 / 1000000001 | TPS 17202 | ETA 14:56:43
Time 01:09:30 | Step 74639161 / 1000000001 | TPS 17115.9 | ETA 15:01:04
Time 01:09:40 | Step 74810095 / 1000000001 | TPS 17093.4 | ETA 15:02:05
Time 01:09:50 | Step 74982031 / 1000000001 | TPS 17193.6 | ETA 14:56:40
Time 01:10:00 | Step 75153950 / 1000000001 | TPS 17191.8 | ETA 14:56:35
Time 01:10:10 | Step 75324906 / 1000000001 | TPS 17095.6 | ETA 15:01:28
Time 01:10:20 | Step 75495452 / 1000000001 | TPS 17054.5 | ETA 15:03:28
Time 01:10:30 | Step 75666662 / 1000000001 | TPS 17121 | ETA 14:59:48
Time 01:10:40 | Step 75838365 / 1000000001 | TPS 17170.3 | ETA 14:57:03
Time 01:10:50 | Step 76010067 / 1000000001 | TPS 17170.1 | ETA 14:56:53
Time 01:11:00 | Step 76181762 / 1000000001 | TPS 17169.5 | ETA 14:56:45
Time 01:11:10 | Step 76354447 / 1000000001 | TPS 17268.4 | ETA 14:51:27
Time 01:11:20 | Step 76527555 / 1000000001 | TPS 17310.8 | ETA 14:49:06
Time 01:11:30 | Step 76700127 / 1000000001 | TPS 17257.2 | ETA 14:51:42
Time 01:11:40 | Step 76872747 / 1000000001 | TPS 17262 | ETA 14:51:17
Time 01:11:50 | Step 77043588 / 1000000001 | TPS 17084.1 | ETA 15:00:24
Time 01:12:00 | Step 77214971 / 1000000001 | TPS 17138.2 | ETA 14:57:23
Time 01:12:10 | Step 77386999 / 1000000001 | TPS 17202.8 | ETA 14:53:51
Time 01:12:20 | Step 77558904 / 1000000001 | TPS 17190.4 | ETA 14:54:20
Time 01:12:30 | Step 77730520 / 1000000001 | TPS 17161.6 | ETA 14:55:40
Time 01:12:40 | Step 77902550 / 1000000001 | TPS 17202.8 | ETA 14:53:21
Time 01:12:50 | Step 78074987 / 1000000001 | TPS 17243.7 | ETA 14:51:04
Time 01:13:00 | Step 78247490 / 1000000001 | TPS 17250.2 | ETA 14:50:34
Time 01:13:10 | Step 78419768 / 1000000001 | TPS 17227.8 | ETA 14:51:33
Time 01:13:20 | Step 78591557 / 1000000001 | TPS 17178.8 | ETA 14:53:56
Time 01:13:30 | Step 78764660 / 1000000001 | TPS 17310.2 | ETA 14:46:59
Time 01:13:40 | Step 78937215 / 1000000001 | TPS 17255.4 | ETA 14:49:38
Time 01:13:50 | Step 79108550 / 1000000001 | TPS 17133.5 | ETA 14:55:48
Time 01:14:00 | Step 79280557 / 1000000001 | TPS 17200.7 | ETA 14:52:08
Time 01:14:10 | Step 79452716 / 1000000001 | TPS 17215.8 | ETA 14:51:11
Time 01:14:20 | Step 79625344 / 1000000001 | TPS 17262.7 | ETA 14:48:35
Time 01:14:30 | Step 79798110 / 1000000001 | TPS 17276.5 | ETA 14:47:43
Time 01:14:40 | Step 79971288 / 1000000001 | TPS 17317.8 | ETA 14:45:26
Time 01:14:50 | Step 80144795 / 1000000001 | TPS 17350.6 | ETA 14:43:35
Time 01:15:00 | Step 80316916 / 1000000001 | TPS 17212.1 | ETA 14:50:32
Time 01:15:10 | Step 80489982 / 1000000001 | TPS 17306.6 | ETA 14:45:30
Time 01:15:20 | Step 80663887 / 1000000001 | TPS 17390.4 | ETA 14:41:04
Time 01:15:30 | Step 80838192 / 1000000001 | TPS 17430.4 | ETA 14:38:53
Time 01:15:40 | Step 81011875 / 1000000001 | TPS 17368.2 | ETA 14:41:52
Time 01:15:50 | Step 81185639 / 1000000001 | TPS 17376.4 | ETA 14:41:17
Time 01:16:00 | Step 81360126 / 1000000001 | TPS 17448.5 | ETA 14:37:28
Time 01:16:10 | Step 81534709 / 1000000001 | TPS 17458.2 | ETA 14:36:49
Time 01:16:20 | Step 81709025 / 1000000001 | TPS 17431.4 | ETA 14:38:00
Time 01:16:30 | Step 81883594 / 1000000001 | TPS 17456.9 | ETA 14:36:33
Time 01:16:40 | Step 82057895 / 1000000001 | TPS 17430 | ETA 14:37:44
Time 01:16:50 | Step 82231443 / 1000000001 | TPS 17354.8 | ETA 14:41:22
Time 01:17:00 | Step 82405869 / 1000000001 | TPS 17442.4 | ETA 14:36:47
Time 01:17:10 | Step 82579998 / 1000000001 | TPS 17412.9 | ETA 14:38:06
Time 01:17:20 | Step 82753789 / 1000000001 | TPS 17379.1 | ETA 14:39:38
Time 01:17:30 | Step 82927694 / 1000000001 | TPS 17390.3 | ETA 14:38:54
Time 01:17:40 | Step 83100432 / 1000000001 | TPS 17273.7 | ETA 14:44:40
Time 01:17:50 | Step 83274445 / 1000000001 | TPS 17401.2 | ETA 14:38:01
Time 01:18:00 | Step 83448707 / 1000000001 | TPS 17426.2 | ETA 14:36:36
Time 01:18:10 | Step 83623101 / 1000000001 | TPS 17439.3 | ETA 14:35:46
Time 01:18:20 | Step 83796297 / 1000000001 | TPS 17319.4 | ETA 14:41:40
Time 01:18:30 | Step 83970483 / 1000000001 | TPS 17418.6 | ETA 14:36:29
Time 01:18:40 | Step 84144580 / 1000000001 | TPS 17409.7 | ETA 14:36:46
Time 01:18:50 | Step 84319015 / 1000000001 | TPS 17443.4 | ETA 14:34:54
Time 01:19:00 | Step 84492263 / 1000000001 | TPS 17324.7 | ETA 14:40:43
Time 01:19:10 | Step 84667193 / 1000000001 | TPS 17492.9 | ETA 14:32:05
Time 01:19:20 | Step 84841946 / 1000000001 | TPS 17475.2 | ETA 14:32:48
Time 01:19:30 | Step 85016127 / 1000000001 | TPS 17417.9 | ETA 14:35:31
Time 01:19:40 | Step 85189953 / 1000000001 | TPS 17382.5 | ETA 14:37:08
Time 01:19:50 | Step 85362983 / 1000000001 | TPS 17303 | ETA 14:41:00
Time 01:20:00 | Step 85536670 / 1000000001 | TPS 17368.5 | ETA 14:37:30
Time 01:20:10 | Step 85709211 / 1000000001 | TPS 17254.1 | ETA 14:43:09
Time 01:20:20 | Step 85881619 / 1000000001 | TPS 17240.8 | ETA 14:43:40
Time 01:20:30 | Step 86054033 / 1000000001 | TPS 17241.2 | ETA 14:43:29
Time 01:20:40 | Step 86227670 / 1000000001 | TPS 17363.6 | ETA 14:37:05
Time 01:20:50 | Step 86401219 / 1000000001 | TPS 17354.9 | ETA 14:37:22
Time 01:21:00 | Step 86576054 / 1000000001 | TPS 17483.3 | ETA 14:30:45
Time 01:21:10 | Step 86750627 / 1000000001 | TPS 17457.2 | ETA 14:31:53
Time 01:21:20 | Step 86924965 / 1000000001 | TPS 17433.6 | ETA 14:32:54
Time 01:21:30 | Step 87098246 / 1000000001 | TPS 17328.1 | ETA 14:38:03
Time 01:21:40 | Step 87272366 / 1000000001 | TPS 17412 | ETA 14:33:39
Time 01:21:50 | Step 87446100 / 1000000001 | TPS 17373.4 | ETA 14:35:25
Time 01:22:00 | Step 87620450 / 1000000001 | TPS 17435 | ETA 14:32:10
Time 01:22:10 | Step 87794955 / 1000000001 | TPS 17450.5 | ETA 14:31:13
Time 01:22:20 | Step 87967209 / 1000000001 | TPS 17225.2 | ETA 14:42:27
Time 01:22:30 | Step 88140310 / 1000000001 | TPS 17310.1 | ETA 14:37:57
Time 01:22:40 | Step 88314078 / 1000000001 | TPS 17376.8 | ETA 14:34:25
Time 01:22:50 | Step 88487764 / 1000000001 | TPS 17368.5 | ETA 14:34:40
Time 01:23:00 | Step 88661157 / 1000000001 | TPS 17339.1 | ETA 14:35:59
Time 01:23:10 | Step 88834426 / 1000000001 | TPS 17326.9 | ETA 14:36:26
Time 01:23:20 | Step 89007474 / 1000000001 | TPS 17304.8 | ETA 14:37:23
Time 01:23:30 | Step 89181522 / 1000000001 | TPS 17404.7 | ETA 14:32:11
Time 01:23:40 | Step 89355467 / 1000000001 | TPS 17394.4 | ETA 14:32:32
Time 01:23:50 | Step 89529677 / 1000000001 | TPS 17420.9 | ETA 14:31:02
Time 01:24:00 | Step 89702773 / 1000000001 | TPS 17309.5 | ETA 14:36:29
Time 01:24:10 | Step 89876425 / 1000000001 | TPS 17365.2 | ETA 14:33:30
Time 01:24:20 | Step 90050738 / 1000000001 | TPS 17431.3 | ETA 14:30:02
Time 01:24:30 | Step 90224802 / 1000000001 | TPS 17406.4 | ETA 14:31:06
Time 01:24:40 | Step 90398183 / 1000000001 | TPS 17338 | ETA 14:34:22
Time 01:24:50 | Step 90570876 / 1000000001 | TPS 17269.3 | ETA 14:37:41
Time 01:25:00 | Step 90744277 / 1000000001 | TPS 17340 | ETA 14:33:56
Time 01:25:10 | Step 90918700 / 1000000001 | TPS 17442.3 | ETA 14:28:39
Time 01:25:20 | Step 91093152 / 1000000001 | TPS 17445.2 | ETA 14:28:20
Time 01:25:30 | Step 91267526 / 1000000001 | TPS 17437.4 | ETA 14:28:34
Time 01:25:40 | Step 91442637 / 1000000001 | TPS 17511 | ETA 14:24:45
Time 01:25:50 | Step 91617153 / 1000000001 | TPS 17451.5 | ETA 14:27:31
Time 01:26:00 | Step 91790744 / 1000000001 | TPS 17359 | ETA 14:31:59
Time 01:26:10 | Step 91963380 / 1000000001 | TPS 17263.6 | ETA 14:36:38
Time 01:26:20 | Step 92136399 / 1000000001 | TPS 17301.9 | ETA 14:34:31
Time 01:26:30 | Step 92307843 / 1000000001 | TPS 17144.4 | ETA 14:42:24
Time 01:26:40 | Step 92479144 / 1000000001 | TPS 17130.1 | ETA 14:42:58
Time 01:26:50 | Step 92652323 / 1000000001 | TPS 17317.9 | ETA 14:33:13
Time 01:27:00 | Step 92825591 / 1000000001 | TPS 17326.7 | ETA 14:32:36
Time 01:27:10 | Step 92999401 / 1000000001 | TPS 17380.9 | ETA 14:29:43
Time 01:27:20 | Step 93172921 / 1000000001 | TPS 17351.9 | ETA 14:31:00
Time 01:27:30 | Step 93346585 / 1000000001 | TPS 17366.4 | ETA 14:30:07
Time 01:27:40 | Step 93519782 / 1000000001 | TPS 17319.7 | ETA 14:32:18
Time 01:27:50 | Step 93693008 / 1000000001 | TPS 17322.6 | ETA 14:31:59
Time 01:28:00 | Step 93865144 / 1000000001 | TPS 17213.6 | ETA 14:37:20
Time 01:28:10 | Step 94037228 / 1000000001 | TPS 17208.4 | ETA 14:37:26
Time 01:28:20 | Step 94210778 / 1000000001 | TPS 17354.9 | ETA 14:29:52
Time 01:28:30 | Step 94382760 / 1000000001 | TPS 17198.1 | ETA 14:37:37
Time 01:28:40 | Step 94556505 / 1000000001 | TPS 17374.4 | ETA 14:28:33
Time 01:28:50 | Step 94730247 / 1000000001 | TPS 17374.2 | ETA 14:28:24
Time 01:29:00 | Step 94903210 / 1000000001 | TPS 17296.1 | ETA 14:32:09
Time 01:29:10 | Step 95076047 / 1000000001 | TPS 17283.6 | ETA 14:32:37
Time 01:29:20 | Step 95249110 / 1000000001 | TPS 17306.3 | ETA 14:31:18
Time 01:29:30 | Step 95420818 / 1000000001 | TPS 17170.8 | ETA 14:38:01
Time 01:29:40 | Step 95593044 / 1000000001 | TPS 17222.6 | ETA 14:35:12
Time 01:29:50 | Step 95765810 / 1000000001 | TPS 17276.5 | ETA 14:32:18
Time 01:30:00 | Step 95937113 / 1000000001 | TPS 17130.2 | ETA 14:39:36
Time 01:30:10 | Step 96107895 / 1000000001 | TPS 17078.2 | ETA 14:42:06
Time 01:30:20 | Step 96278385 / 1000000001 | TPS 17049 | ETA 14:43:27
Time 01:30:30 | Step 96449983 / 1000000001 | TPS 17159.8 | ETA 14:37:35
Time 01:30:40 | Step 96623506 / 1000000001 | TPS 17352.2 | ETA 14:27:41
Time 01:30:50 | Step 96796256 / 1000000001 | TPS 17274.9 | ETA 14:31:24
Time 01:31:00 | Step 96967419 / 1000000001 | TPS 17116.2 | ETA 14:39:18
Time 01:31:10 | Step 97138030 / 1000000001 | TPS 17061.1 | ETA 14:41:59
Time 01:31:20 | Step 97310237 / 1000000001 | TPS 17220.7 | ETA 14:33:38
Time 01:31:30 | Step 97482579 / 1000000001 | TPS 17234.2 | ETA 14:32:47
Time 01:31:40 | Step 97656354 / 1000000001 | TPS 17377.5 | ETA 14:25:26
Time 01:31:50 | Step 97829551 / 1000000001 | TPS 17319.6 | ETA 14:28:09
Time 01:32:00 | Step 98002340 / 1000000001 | TPS 17278.9 | ETA 14:30:02
Time 01:32:10 | Step 98175460 / 1000000001 | TPS 17311.9 | ETA 14:28:12
Time 01:32:20 | Step 98348779 / 1000000001 | TPS 17331.9 | ETA 14:27:02
Time 01:32:30 | Step 98521860 / 1000000001 | TPS 17308 | ETA 14:28:04
Time 01:32:40 | Step 98695151 / 1000000001 | TPS 17329 | ETA 14:26:51
Time 01:32:50 | Step 98868917 / 1000000001 | TPS 17376.6 | ETA 14:24:18
Time 01:33:00 | Step 99041063 / 1000000001 | TPS 17214.6 | ETA 14:32:17
Time 01:33:10 | Step 99216010 / 1000000001 | TPS 17494.6 | ETA 14:18:09
Time 01:33:20 | Step 99390741 / 1000000001 | TPS 17473 | ETA 14:19:02
Time 01:33:30 | Step 99565710 / 1000000001 | TPS 17496.9 | ETA 14:17:42
Time 01:33:40 | Step 99739974 / 1000000001 | TPS 17426.3 | ETA 14:21:00
Time 01:33:50 | Step 99912384 / 1000000001 | TPS 17241 | ETA 14:30:06
Time 01:34:00 | Step 100083903 / 1000000001 | TPS 17151.9 | ETA 14:34:27
Time 01:34:10 | Step 100257619 / 1000000001 | TPS 17371.6 | ETA 14:23:13
Time 01:34:20 | Step 100431818 / 1000000001 | TPS 17419.9 | ETA 14:20:40
Time 01:34:30 | Step 100605427 / 1000000001 | TPS 17360.8 | ETA 14:23:25
Time 01:34:40 | Step 100777501 / 1000000001 | TPS 17207.3 | ETA 14:30:58
Time 01:34:50 | Step 100950688 / 1000000001 | TPS 17318.7 | ETA 14:25:12
Time 01:35:00 | Step 101123071 / 1000000001 | TPS 17238.2 | ETA 14:29:04
Time 01:35:10 | Step 101294447 / 1000000001 | TPS 17137.5 | ETA 14:34:00
Time 01:35:20 | Step 101465713 / 1000000001 | TPS 17126.6 | ETA 14:34:24
Time 01:35:30 | Step 101638851 / 1000000001 | TPS 17313.7 | ETA 14:24:47
Time 01:35:40 | Step 101812873 / 1000000001 | TPS 17402.2 | ETA 14:20:13
Time 01:35:50 | Step 101987375 / 1000000001 | TPS 17450.1 | ETA 14:17:41
Time 01:36:00 | Step 102162133 / 1000000001 | TPS 17475.6 | ETA 14:16:16
Time 01:36:10 | Step 102336639 / 1000000001 | TPS 17450.6 | ETA 14:17:20
Time 01:36:20 | Step 102511307 / 1000000001 | TPS 17466.8 | ETA 14:16:22
Time 01:36:30 | Step 102685761 / 1000000001 | TPS 17445.4 | ETA 14:17:15
Time 01:36:40 | Step 102860631 / 1000000001 | TPS 17486.8 | ETA 14:15:03
Time 01:36:50 | Step 103034589 / 1000000001 | TPS 17395.7 | ETA 14:19:22
Time 01:37:00 | Step 103209000 / 1000000001 | TPS 17441.1 | ETA 14:16:58
Time 01:37:10 | Step 103384086 / 1000000001 | TPS 17508.5 | ETA 14:13:30
Time 01:37:20 | Step 103558550 / 1000000001 | TPS 17446.4 | ETA 14:16:22
Time 01:37:30 | Step 103732765 / 1000000001 | TPS 17421.3 | ETA 14:17:26
Time 01:37:40 | Step 103906613 / 1000000001 | TPS 17384.7 | ETA 14:19:04
Time 01:37:50 | Step 104080405 / 1000000001 | TPS 17379.1 | ETA 14:19:11
Time 01:38:00 | Step 104251869 / 1000000001 | TPS 17146.3 | ETA 14:30:41
Time 01:38:10 | Step 104425359 / 1000000001 | TPS 17349 | ETA 14:20:21
Time 01:38:20 | Step 104600401 / 1000000001 | TPS 17503.8 | ETA 14:12:34
Time 01:38:30 | Step 104775244 / 1000000001 | TPS 17484.3 | ETA 14:13:21
Time 01:38:40 | Step 104948632 / 1000000001 | TPS 17338.6 | ETA 14:20:21
Time 01:38:50 | Step 105122906 / 1000000001 | TPS 17427.4 | ETA 14:15:48
Time 01:39:00 | Step 105297379 / 1000000001 | TPS 17447.1 | ETA 14:14:40
Time 01:39:10 | Step 105472222 / 1000000001 | TPS 17484.3 | ETA 14:12:41
Time 01:39:20 | Step 105647239 / 1000000001 | TPS 17501.7 | ETA 14:11:41
Time 01:39:30 | Step 105820871 / 1000000001 | TPS 17363.2 | ETA 14:18:18
Time 01:39:40 | Step 105994148 / 1000000001 | TPS 17327.7 | ETA 14:19:54
Time 01:39:50 | Step 106167925 / 1000000001 | TPS 17377.6 | ETA 14:17:15
Time 01:40:00 | Step 106341497 / 1000000001 | TPS 17357.2 | ETA 14:18:06
Time 01:40:10 | Step 106514637 / 1000000001 | TPS 17313.9 | ETA 14:20:05
Time 01:40:20 | Step 106688588 / 1000000001 | TPS 17395.1 | ETA 14:15:54
Time 01:40:30 | Step 106863010 / 1000000001 | TPS 17442.2 | ETA 14:13:25
Time 01:40:40 | Step 107037333 / 1000000001 | TPS 17432.3 | ETA 14:13:44
Time 01:40:50 | Step 107211473 / 1000000001 | TPS 17413.9 | ETA 14:14:28
Time 01:41:00 | Step 107386064 / 1000000001 | TPS 17459 | ETA 14:12:06
Time 01:41:10 | Step 107560561 / 1000000001 | TPS 17449.7 | ETA 14:12:23
Time 01:41:20 | Step 107733310 / 1000000001 | TPS 17274.8 | ETA 14:20:51
Time 01:41:30 | Step 107907379 / 1000000001 | TPS 17406.9 | ETA 14:14:09
Time 01:41:40 | Step 108081920 / 1000000001 | TPS 17454 | ETA 14:11:41
Time 01:41:50 | Step 108256245 / 1000000001 | TPS 17432.5 | ETA 14:12:34
Time 01:42:00 | Step 108430642 / 1000000001 | TPS 17439.6 | ETA 14:12:03
Time 01:42:10 | Step 108605443 / 1000000001 | TPS 17480 | ETA 14:09:55
Time 01:42:20 | Step 108779921 / 1000000001 | TPS 17447.7 | ETA 14:11:19
Time 01:42:30 | Step 108954732 / 1000000001 | TPS 17481.1 | ETA 14:09:31
Time 01:42:40 | Step 109128081 / 1000000001 | TPS 17334.9 | ETA 14:16:31
Time 01:42:50 | Step 109300937 / 1000000001 | TPS 17285.6 | ETA 14:18:48
Time 01:43:00 | Step 109475131 / 1000000001 | TPS 17419.4 | ETA 14:12:02
Time 01:43:10 | Step 109649408 / 1000000001 | TPS 17427.6 | ETA 14:11:28
Time 01:43:20 | Step 109824098 / 1000000001 | TPS 17468.9 | ETA 14:09:17
Time 01:43:30 | Step 109998737 / 1000000001 | TPS 17463.8 | ETA 14:09:22
Time 01:43:40 | Step 110172841 / 1000000001 | TPS 17410.4 | ETA 14:11:48
Time 01:43:50 | Step 110347629 / 1000000001 | TPS 17478.7 | ETA 14:08:19
Time 01:44:00 | Step 110522447 / 1000000001 | TPS 17481.6 | ETA 14:08:00
Time 01:44:10 | Step 110696091 / 1000000001 | TPS 17364.3 | ETA 14:13:34
Time 01:44:20 | Step 110870148 / 1000000001 | TPS 17405.6 | ETA 14:11:22
Time 01:44:30 | Step 111043646 / 1000000001 | TPS 17349.7 | ETA 14:13:57
Time 01:44:40 | Step 111218887 / 1000000001 | TPS 17523.9 | ETA 14:05:18
Time 01:44:50 | Step 111393564 / 1000000001 | TPS 17467.5 | ETA 14:07:51
Time 01:45:00 | Step 111566507 / 1000000001 | TPS 17294.2 | ETA 14:16:11
Time 01:45:10 | Step 111740328 / 1000000001 | TPS 17382.1 | ETA 14:11:41
Time 01:45:20 | Step 111912698 / 1000000001 | TPS 17236.9 | ETA 14:18:42
Time 01:45:30 | Step 112086175 / 1000000001 | TPS 17347.6 | ETA 14:13:03
Time 01:45:40 | Step 112260732 / 1000000001 | TPS 17455.7 | ETA 14:07:36
Time 01:45:50 | Step 112434919 / 1000000001 | TPS 17418.7 | ETA 14:09:14
Time 01:46:00 | Step 112609185 / 1000000001 | TPS 17426.5 | ETA 14:08:41
Time 01:46:10 | Step 112783501 / 1000000001 | TPS 17431.1 | ETA 14:08:18
Time 01:46:20 | Step 112957549 / 1000000001 | TPS 17404.8 | ETA 14:09:25
Time 01:46:30 | Step 113130426 / 1000000001 | TPS 17287.6 | ETA 14:15:00
Time 01:46:40 | Step 113303993 / 1000000001 | TPS 17356.7 | ETA 14:11:26
Time 01:46:50 | Step 113477802 / 1000000001 | TPS 17380.9 | ETA 14:10:05
Time 01:47:00 | Step 113652035 / 1000000001 | TPS 17423.2 | ETA 14:07:51
Time 01:47:10 | Step 113826279 / 1000000001 | TPS 17424.4 | ETA 14:07:38
Time 01:47:20 | Step 114000155 / 1000000001 | TPS 17387.6 | ETA 14:09:15
Time 01:47:30 | Step 114174337 / 1000000001 | TPS 17418 | ETA 14:07:36
Time 01:47:40 | Step 114349459 / 1000000001 | TPS 17512.1 | ETA 14:02:53
Time 01:47:50 | Step 114523680 / 1000000001 | TPS 17422 | ETA 14:07:05
Time 01:48:00 | Step 114697953 / 1000000001 | TPS 17427.3 | ETA 14:06:39
Time 01:48:10 | Step 114871909 / 1000000001 | TPS 17395.6 | ETA 14:08:02
Time 01:48:20 | Step 115045397 / 1000000001 | TPS 17348.7 | ETA 14:10:09
Time 01:48:30 | Step 115218832 / 1000000001 | TPS 17343.5 | ETA 14:10:15
Time 01:48:40 | Step 115392984 / 1000000001 | TPS 17415.1 | ETA 14:06:35
Time 01:48:50 | Step 115567298 / 1000000001 | TPS 17431.3 | ETA 14:05:38
Time 01:49:00 | Step 115741501 / 1000000001 | TPS 17420.1 | ETA 14:06:00
Time 01:49:10 | Step 115916315 / 1000000001 | TPS 17481.4 | ETA 14:02:52
Time 01:49:20 | Step 116090706 / 1000000001 | TPS 17439 | ETA 14:04:45
Time 01:49:30 | Step 116264922 / 1000000001 | TPS 17421.6 | ETA 14:05:26
Time 01:49:40 | Step 116439833 / 1000000001 | TPS 17491 | ETA 14:01:54
Time 01:49:50 | Step 116614018 / 1000000001 | TPS 17418.4 | ETA 14:05:15
Time 01:50:00 | Step 116787466 / 1000000001 | TPS 17344.8 | ETA 14:08:40
Time 01:50:10 | Step 116961207 / 1000000001 | TPS 17374 | ETA 14:07:05
Time 01:50:20 | Step 117135105 / 1000000001 | TPS 17389.6 | ETA 14:06:09
Time 01:50:30 | Step 117308808 / 1000000001 | TPS 17370.3 | ETA 14:06:56
Time 01:50:40 | Step 117482215 / 1000000001 | TPS 17340.6 | ETA 14:08:13
Time 01:50:50 | Step 117656347 / 1000000001 | TPS 17413.1 | ETA 14:04:31
Time 01:51:00 | Step 117830460 / 1000000001 | TPS 17411.2 | ETA 14:04:26
Time 01:51:10 | Step 118004175 / 1000000001 | TPS 17371.4 | ETA 14:06:12
Time 01:51:20 | Step 118178189 / 1000000001 | TPS 17401.4 | ETA 14:04:35
Time 01:51:30 | Step 118351225 / 1000000001 | TPS 17303.4 | ETA 14:09:12
Time 01:51:40 | Step 118524076 / 1000000001 | TPS 17285.1 | ETA 14:09:56
Time 01:51:50 | Step 118698600 / 1000000001 | TPS 17452.3 | ETA 14:01:37
Time 01:52:00 | Step 118872905 / 1000000001 | TPS 17430.5 | ETA 14:02:30
Time 01:52:10 | Step 119046968 / 1000000001 | TPS 17406.3 | ETA 14:03:31
Time 01:52:20 | Step 119219748 / 1000000001 | TPS 17278 | ETA 14:09:37
Time 01:52:30 | Step 119393501 / 1000000001 | TPS 17375.2 | ETA 14:04:41
Time 01:52:40 | Step 119567979 / 1000000001 | TPS 17447.8 | ETA 14:01:01
Time 01:52:50 | Step 119742538 / 1000000001 | TPS 17455.8 | ETA 14:00:27
Time 01:53:00 | Step 119917044 / 1000000001 | TPS 17450.5 | ETA 14:00:33
Time 01:53:10 | Step 120090469 / 1000000001 | TPS 17342.5 | ETA 14:05:37
Time 01:53:20 | Step 120263649 / 1000000001 | TPS 17318 | ETA 14:06:39
Time 01:53:30 | Step 120437163 / 1000000001 | TPS 17351.3 | ETA 14:04:51
Time 01:53:40 | Step 120611785 / 1000000001 | TPS 17462.2 | ETA 13:59:19
Time 01:53:50 | Step 120786185 / 1000000001 | TPS 17439.8 | ETA 14:00:14
Time 01:54:00 | Step 120960709 / 1000000001 | TPS 17452.4 | ETA 13:59:27
Time 01:54:10 | Step 121135168 / 1000000001 | TPS 17445.8 | ETA 13:59:36
Time 01:54:20 | Step 121308903 / 1000000001 | TPS 17373.4 | ETA 14:02:56
Time 01:54:30 | Step 121482503 / 1000000001 | TPS 17360 | ETA 14:03:25
Time 01:54:40 | Step 121656394 / 1000000001 | TPS 17389 | ETA 14:01:51
Time 01:54:50 | Step 121830557 / 1000000001 | TPS 17416.2 | ETA 14:00:22
Time 01:55:00 | Step 122004662 / 1000000001 | TPS 17410.5 | ETA 14:00:29
Time 01:55:10 | Step 122178002 / 1000000001 | TPS 17333.9 | ETA 14:04:01
Time 01:55:20 | Step 122351297 / 1000000001 | TPS 17329.5 | ETA 14:04:04
Time 01:55:30 | Step 122525302 / 1000000001 | TPS 17400.5 | ETA 14:00:28
Time 01:55:40 | Step 122699860 / 1000000001 | TPS 17455.8 | ETA 13:57:38
Time 01:55:50 | Step 122873475 / 1000000001 | TPS 17361.5 | ETA 14:02:01
Time 01:56:00 | Step 123047701 / 1000000001 | TPS 17422.1 | ETA 13:58:55
Time 01:56:10 | Step 123221400 / 1000000001 | TPS 17369.8 | ETA 14:01:17
Time 01:56:20 | Step 123394776 / 1000000001 | TPS 17337.5 | ETA 14:02:41
Time 01:56:30 | Step 123566518 / 1000000001 | TPS 17174.2 | ETA 14:10:32
Time 01:56:40 | Step 123739862 / 1000000001 | TPS 17334.4 | ETA 14:02:30
Time 01:56:50 | Step 123912212 / 1000000001 | TPS 17234.9 | ETA 14:07:12
Time 01:57:00 | Step 124084434 / 1000000001 | TPS 17222.1 | ETA 14:07:39
Time 01:57:10 | Step 124256688 / 1000000001 | TPS 17225.3 | ETA 14:07:20
Time 01:57:20 | Step 124430014 / 1000000001 | TPS 17332.6 | ETA 14:01:55
Time 01:57:30 | Step 124601916 / 1000000001 | TPS 17190 | ETA 14:08:44
Time 01:57:40 | Step 124773837 / 1000000001 | TPS 17192 | ETA 14:08:28
Time 01:57:50 | Step 124945119 / 1000000001 | TPS 17128.1 | ETA 14:11:28
Time 01:58:00 | Step 125117451 / 1000000001 | TPS 17233.2 | ETA 14:06:07
Time 01:58:10 | Step 125290446 / 1000000001 | TPS 17299.5 | ETA 14:02:42
Time 01:58:20 | Step 125462701 / 1000000001 | TPS 17225.4 | ETA 14:06:10
Time 01:58:30 | Step 125634181 / 1000000001 | TPS 17147.9 | ETA 14:09:49
Time 01:58:40 | Step 125805921 / 1000000001 | TPS 17173.9 | ETA 14:08:22
Time 01:58:50 | Step 125979093 / 1000000001 | TPS 17317.2 | ETA 14:01:11
Time 01:59:00 | Step 126150500 / 1000000001 | TPS 17140.6 | ETA 14:09:41
Time 01:59:10 | Step 126322273 / 1000000001 | TPS 17177.3 | ETA 14:07:42
Time 01:59:20 | Step 126496329 / 1000000001 | TPS 17405.5 | ETA 13:56:25
Time 01:59:30 | Step 126670587 / 1000000001 | TPS 17425.7 | ETA 13:55:17
Time 01:59:40 | Step 126844498 / 1000000001 | TPS 17391.1 | ETA 13:56:47
Time 01:59:50 | Step 127017949 / 1000000001 | TPS 17344.9 | ETA 13:58:50
Time 02:00:00 | Step 127192092 / 1000000001 | TPS 17414.2 | ETA 13:55:20
Time 02:00:10 | Step 127366442 / 1000000001 | TPS 17435 | ETA 13:54:10
Time 02:00:20 | Step 127540791 / 1000000001 | TPS 17434.8 | ETA 13:54:01
Time 02:00:30 | Step 127713861 / 1000000001 | TPS 17306.9 | ETA 14:00:00
Time 02:00:40 | Step 127888301 / 1000000001 | TPS 17443.9 | ETA 13:53:15
Time 02:00:50 | Step 128062327 / 1000000001 | TPS 17402.6 | ETA 13:55:04
Time 02:01:00 | Step 128236489 / 1000000001 | TPS 17416.2 | ETA 13:54:14
Time 02:01:10 | Step 128410726 / 1000000001 | TPS 17423.5 | ETA 13:53:43
Time 02:01:20 | Step 128584289 / 1000000001 | TPS 17356.2 | ETA 13:56:47
Time 02:01:30 | Step 128758280 / 1000000001 | TPS 17399.1 | ETA 13:54:33
Time 02:01:40 | Step 128932115 / 1000000001 | TPS 17383.4 | ETA 13:55:09
Time 02:01:50 | Step 129106053 / 1000000001 | TPS 17393.8 | ETA 13:54:29
Time 02:02:00 | Step 129281069 / 1000000001 | TPS 17501.6 | ETA 13:49:10
Time 02:02:10 | Step 129455247 / 1000000001 | TPS 17417.8 | ETA 13:53:00
Time 02:02:20 | Step 129629289 / 1000000001 | TPS 17404.2 | ETA 13:53:29
Time 02:02:30 | Step 129803081 / 1000000001 | TPS 17379.1 | ETA 13:54:31
Time 02:02:40 | Step 129978016 / 1000000001 | TPS 17493.5 | ETA 13:48:54
Time 02:02:50 | Step 130151712 / 1000000001 | TPS 17369.6 | ETA 13:54:38
Time 02:03:00 | Step 130325876 / 1000000001 | TPS 17416.2 | ETA 13:52:14
Time 02:03:10 | Step 130499971 / 1000000001 | TPS 17409.4 | ETA 13:52:24
Time 02:03:20 | Step 130673398 / 1000000001 | TPS 17342.7 | ETA 13:55:26
Time 02:03:30 | Step 130846829 / 1000000001 | TPS 17343.1 | ETA 13:55:15
Time 02:03:40 | Step 131020325 / 1000000001 | TPS 17349.4 | ETA 13:54:46
Time 02:03:50 | Step 131193783 / 1000000001 | TPS 17345.8 | ETA 13:54:47
Time 02:04:00 | Step 131366799 / 1000000001 | TPS 17301.5 | ETA 13:56:45
Time 02:04:10 | Step 131540769 / 1000000001 | TPS 17396.9 | ETA 13:52:00
Time 02:04:20 | Step 131714854 / 1000000001 | TPS 17408.4 | ETA 13:51:17
Time 02:04:30 | Step 131887114 / 1000000001 | TPS 17225.9 | ETA 13:59:55
Time 02:04:40 | Step 132061547 / 1000000001 | TPS 17443.3 | ETA 13:49:17
Time 02:04:50 | Step 132236117 / 1000000001 | TPS 17457 | ETA 13:48:28
Time 02:05:00 | Step 132410579 / 1000000001 | TPS 17446.2 | ETA 13:48:49
Time 02:05:10 | Step 132584626 / 1000000001 | TPS 17404.7 | ETA 13:50:38
Time 02:05:20 | Step 132758856 / 1000000001 | TPS 17423 | ETA 13:49:35
Time 02:05:30 | Step 132932941 / 1000000001 | TPS 17408.5 | ETA 13:50:07
Time 02:05:40 | Step 133107225 / 1000000001 | TPS 17428.3 | ETA 13:49:00
Time 02:05:50 | Step 133281881 / 1000000001 | TPS 17465.6 | ETA 13:47:04
Time 02:06:00 | Step 133455163 / 1000000001 | TPS 17328.2 | ETA 13:53:27
Time 02:06:10 | Step 133628850 / 1000000001 | TPS 17368.6 | ETA 13:51:21
Time 02:06:20 | Step 133802869 / 1000000001 | TPS 17401.9 | ETA 13:49:36
Time 02:06:30 | Step 133976115 / 1000000001 | TPS 17324.6 | ETA 13:53:08
Time 02:06:40 | Step 134149076 / 1000000001 | TPS 17296.1 | ETA 13:54:20
Time 02:06:50 | Step 134322446 / 1000000001 | TPS 17337 | ETA 13:52:12
Time 02:07:00 | Step 134496809 / 1000000001 | TPS 17436.2 | ETA 13:47:18
Time 02:07:10 | Step 134670844 / 1000000001 | TPS 17403.4 | ETA 13:48:41
Time 02:07:20 | Step 134843178 / 1000000001 | TPS 17233.4 | ETA 13:56:42
Time 02:07:30 | Step 135016125 / 1000000001 | TPS 17294.7 | ETA 13:53:34
Time 02:07:40 | Step 135189493 / 1000000001 | TPS 17336.7 | ETA 13:51:23
Time 02:07:50 | Step 135362870 / 1000000001 | TPS 17337.5 | ETA 13:51:10
Time 02:08:00 | Step 135536738 / 1000000001 | TPS 17386.8 | ETA 13:48:39
Time 02:08:10 | Step 135710193 / 1000000001 | TPS 17345.4 | ETA 13:50:28
Time 02:08:20 | Step 135883257 / 1000000001 | TPS 17306.3 | ETA 13:52:10
Time 02:08:30 | Step 136055734 / 1000000001 | TPS 17247.6 | ETA 13:54:50
Time 02:08:40 | Step 136228708 / 1000000001 | TPS 17297.4 | ETA 13:52:16
Time 02:08:50 | Step 136400665 / 1000000001 | TPS 17195.6 | ETA 13:57:02
Time 02:09:00 | Step 136573163 / 1000000001 | TPS 17249.8 | ETA 13:54:14
Time 02:09:10 | Step 136745817 / 1000000001 | TPS 17265.2 | ETA 13:53:19
Time 02:09:20 | Step 136919520 / 1000000001 | TPS 17370.2 | ETA 13:48:07
Time 02:09:30 | Step 137091950 / 1000000001 | TPS 17242.9 | ETA 13:54:04
Time 02:09:40 | Step 137265569 / 1000000001 | TPS 17361.9 | ETA 13:48:11
Time 02:09:50 | Step 137439266 / 1000000001 | TPS 17369.7 | ETA 13:47:39
Time 02:10:00 | Step 137612692 / 1000000001 | TPS 17342.6 | ETA 13:48:46
Time 02:10:10 | Step 137786259 / 1000000001 | TPS 17356.7 | ETA 13:47:56
Time 02:10:20 | Step 137960391 / 1000000001 | TPS 17413.2 | ETA 13:45:05
Time 02:10:30 | Step 138134904 / 1000000001 | TPS 17451.3 | ETA 13:43:06
Time 02:10:40 | Step 138309206 / 1000000001 | TPS 17430 | ETA 13:43:57
Time 02:10:50 | Step 138483800 / 1000000001 | TPS 17459.4 | ETA 13:42:24
Time 02:11:00 | Step 138658994 / 1000000001 | TPS 17519.3 | ETA 13:39:25
Time 02:11:10 | Step 138834446 / 1000000001 | TPS 17545.1 | ETA 13:38:02
Time 02:11:20 | Step 139009249 / 1000000001 | TPS 17480.3 | ETA 13:40:55
Time 02:11:30 | Step 139183279 / 1000000001 | TPS 17402.9 | ETA 13:44:23
Time 02:11:40 | Step 139357766 / 1000000001 | TPS 17448.7 | ETA 13:42:04
Time 02:11:50 | Step 139532458 / 1000000001 | TPS 17469.1 | ETA 13:40:56
Time 02:12:00 | Step 139707427 / 1000000001 | TPS 17496.9 | ETA 13:39:28
Time 02:12:10 | Step 139882307 / 1000000001 | TPS 17487.9 | ETA 13:39:43
Time 02:12:20 | Step 140056770 / 1000000001 | TPS 17446.1 | ETA 13:41:31
Time 02:12:30 | Step 140230859 / 1000000001 | TPS 17408.9 | ETA 13:43:06
Time 02:12:40 | Step 140405111 / 1000000001 | TPS 17425.1 | ETA 13:42:10
Time 02:12:50 | Step 140580082 / 1000000001 | TPS 17497 | ETA 13:38:38
Time 02:13:00 | Step 140754696 / 1000000001 | TPS 17461.4 | ETA 13:40:08
Time 02:13:10 | Step 140928659 / 1000000001 | TPS 17396.2 | ETA 13:43:02
Time 02:13:20 | Step 141102076 / 1000000001 | TPS 17341.6 | ETA 13:45:28
Time 02:13:30 | Step 141276108 / 1000000001 | TPS 17403.2 | ETA 13:42:22
Time 02:13:40 | Step 141450720 / 1000000001 | TPS 17461.2 | ETA 13:39:29
Time 02:13:50 | Step 141625150 / 1000000001 | TPS 17443 | ETA 13:40:10
Time 02:14:00 | Step 141799898 / 1000000001 | TPS 17474.8 | ETA 13:38:30
Time 02:14:10 | Step 141974385 / 1000000001 | TPS 17448.7 | ETA 13:39:34
Time 02:14:20 | Step 142148702 / 1000000001 | TPS 17431.7 | ETA 13:40:12
Time 02:14:30 | Step 142323219 / 1000000001 | TPS 17451.7 | ETA 13:39:05
Time 02:14:40 | Step 142497135 / 1000000001 | TPS 17391.6 | ETA 13:41:45
Time 02:14:50 | Step 142670930 / 1000000001 | TPS 17379.5 | ETA 13:42:09
Time 02:15:00 | Step 142844245 / 1000000001 | TPS 17331.4 | ETA 13:44:16
Time 02:15:10 | Step 143017901 / 1000000001 | TPS 17365.6 | ETA 13:42:29
Time 02:15:20 | Step 143191625 / 1000000001 | TPS 17372.3 | ETA 13:42:00
Time 02:15:30 | Step 143364917 / 1000000001 | TPS 17329.1 | ETA 13:43:53
Time 02:15:40 | Step 143538628 / 1000000001 | TPS 17371 | ETA 13:41:44
Time 02:15:50 | Step 143712311 / 1000000001 | TPS 17368.3 | ETA 13:41:41
Time 02:16:00 | Step 143886434 / 1000000001 | TPS 17412.2 | ETA 13:39:27
Time 02:16:10 | Step 144060373 / 1000000001 | TPS 17393.9 | ETA 13:40:09
Time 02:16:20 | Step 144234422 / 1000000001 | TPS 17404.8 | ETA 13:39:28
Time 02:16:30 | Step 144408412 / 1000000001 | TPS 17398.9 | ETA 13:39:34
Time 02:16:40 | Step 144582681 / 1000000001 | TPS 17426.9 | ETA 13:38:06
Time 02:16:50 | Step 144756831 / 1000000001 | TPS 17415 | ETA 13:38:29
Time 02:17:00 | Step 144929786 / 1000000001 | TPS 17295.4 | ETA 13:43:59
Time 02:17:10 | Step 145102921 / 1000000001 | TPS 17313.4 | ETA 13:42:57
Time 02:17:20 | Step 145277738 / 1000000001 | TPS 17481.7 | ETA 13:34:52
Time 02:17:30 | Step 145452259 / 1000000001 | TPS 17452.1 | ETA 13:36:05
Time 02:17:40 | Step 145626687 / 1000000001 | TPS 17442.7 | ETA 13:36:21
Time 02:17:50 | Step 145799437 / 1000000001 | TPS 17274.9 | ETA 13:44:07
Time 02:18:00 | Step 145972035 / 1000000001 | TPS 17259.7 | ETA 13:44:40
Time 02:18:10 | Step 146145193 / 1000000001 | TPS 17315.7 | ETA 13:41:51
Time 02:18:20 | Step 146317709 / 1000000001 | TPS 17251.5 | ETA 13:44:44
Time 02:18:30 | Step 146490545 / 1000000001 | TPS 17283.6 | ETA 13:43:02
Time 02:18:40 | Step 146663599 / 1000000001 | TPS 17305.4 | ETA 13:41:50
Time 02:18:50 | Step 146836866 / 1000000001 | TPS 17326.7 | ETA 13:40:39
Time 02:19:00 | Step 147009179 / 1000000001 | TPS 17231.3 | ETA 13:45:02
Time 02:19:10 | Step 147181088 / 1000000001 | TPS 17190.8 | ETA 13:46:48
Time 02:19:20 | Step 147352965 / 1000000001 | TPS 17187.7 | ETA 13:46:47
Time 02:19:30 | Step 147526335 / 1000000001 | TPS 17336.9 | ETA 13:39:31
Time 02:19:40 | Step 147700785 / 1000000001 | TPS 17444.9 | ETA 13:34:16
Time 02:19:50 | Step 147875300 / 1000000001 | TPS 17451.5 | ETA 13:33:48
Time 02:20:00 | Step 148049089 / 1000000001 | TPS 17378.8 | ETA 13:37:02
Time 02:20:10 | Step 148223774 / 1000000001 | TPS 17468.5 | ETA 13:32:40
Time 02:20:20 | Step 148398775 / 1000000001 | TPS 17500.1 | ETA 13:31:02
Time 02:20:30 | Step 148573255 / 1000000001 | TPS 17448 | ETA 13:33:18
Time 02:20:40 | Step 148747449 / 1000000001 | TPS 17419.3 | ETA 13:34:28
Time 02:20:50 | Step 148921755 / 1000000001 | TPS 17430.6 | ETA 13:33:46
Time 02:21:00 | Step 149095637 / 1000000001 | TPS 17388.1 | ETA 13:35:36
Time 02:21:10 | Step 149269778 / 1000000001 | TPS 17413.9 | ETA 13:34:13
Time 02:21:20 | Step 149444101 / 1000000001 | TPS 17431.9 | ETA 13:33:13
Time 02:21:30 | Step 149617667 / 1000000001 | TPS 17356.4 | ETA 13:36:35
Time 02:21:40 | Step 149791421 / 1000000001 | TPS 17375.3 | ETA 13:35:31
Time 02:21:50 | Step 149964923 / 1000000001 | TPS 17350.2 | ETA 13:36:32
Time 02:22:00 | Step 150139261 / 1000000001 | TPS 17433.7 | ETA 13:32:28
Time 02:22:10 | Step 150313521 / 1000000001 | TPS 17426 | ETA 13:32:39
Time 02:22:20 | Step 150488093 / 1000000001 | TPS 17457 | ETA 13:31:03
Time 02:22:30 | Step 150662043 / 1000000001 | TPS 17395 | ETA 13:33:46
Time 02:22:40 | Step 150835585 / 1000000001 | TPS 17354.1 | ETA 13:35:31
Time 02:22:50 | Step 151009915 / 1000000001 | TPS 17432.9 | ETA 13:31:40
Time 02:23:00 | Step 151185310 / 1000000001 | TPS 17539.4 | ETA 13:26:34
Time 02:23:10 | Step 151360546 / 1000000001 | TPS 17523.6 | ETA 13:27:08
Time 02:23:20 | Step 151535965 / 1000000001 | TPS 17541.8 | ETA 13:26:08
Time 02:23:30 | Step 151710601 / 1000000001 | TPS 17463.5 | ETA 13:29:35
Time 02:23:40 | Step 151884399 / 1000000001 | TPS 17379.8 | ETA 13:33:19
Time 02:23:50 | Step 152059027 / 1000000001 | TPS 17462.8 | ETA 13:29:17
Time 02:24:00 | Step 152233575 / 1000000001 | TPS 17454.7 | ETA 13:29:29
Time 02:24:10 | Step 152407180 / 1000000001 | TPS 17360.4 | ETA 13:33:43
Time 02:24:20 | Step 152580898 / 1000000001 | TPS 17371.7 | ETA 13:33:01
Time 02:24:30 | Step 152754040 / 1000000001 | TPS 17314.2 | ETA 13:35:33
Time 02:24:40 | Step 152928558 / 1000000001 | TPS 17451.8 | ETA 13:28:57
Time 02:24:50 | Step 153102115 / 1000000001 | TPS 17355.7 | ETA 13:33:16
Time 02:25:00 | Step 153276741 / 1000000001 | TPS 17462.5 | ETA 13:28:07
Time 02:25:10 | Step 153451629 / 1000000001 | TPS 17488.7 | ETA 13:26:45
Time 02:25:20 | Step 153626293 / 1000000001 | TPS 17466.2 | ETA 13:27:37
Time 02:25:30 | Step 153799347 / 1000000001 | TPS 17305.4 | ETA 13:34:58
Time 02:25:40 | Step 153973421 / 1000000001 | TPS 17407.4 | ETA 13:30:01
Time 02:25:50 | Step 154147762 / 1000000001 | TPS 17434 | ETA 13:28:37
Time 02:26:00 | Step 154320160 / 1000000001 | TPS 17239.7 | ETA 13:37:34
Time 02:26:10 | Step 154493384 / 1000000001 | TPS 17322.3 | ETA 13:33:30
Time 02:26:20 | Step 154667101 / 1000000001 | TPS 17371.5 | ETA 13:31:02
Time 02:26:30 | Step 154841152 / 1000000001 | TPS 17405.1 | ETA 13:29:18
Time 02:26:40 | Step 155014889 / 1000000001 | TPS 17373.7 | ETA 13:30:36
Time 02:26:50 | Step 155188866 / 1000000001 | TPS 17397.6 | ETA 13:29:18
Time 02:27:00 | Step 155361932 / 1000000001 | TPS 17306.5 | ETA 13:33:24
Time 02:27:10 | Step 155533763 / 1000000001 | TPS 17183 | ETA 13:39:05
Time 02:27:20 | Step 155706896 / 1000000001 | TPS 17313.2 | ETA 13:32:45
Time 02:27:30 | Step 155880479 / 1000000001 | TPS 17358.3 | ETA 13:30:29
Time 02:27:40 | Step 156053660 / 1000000001 | TPS 17318 | ETA 13:32:12
Time 02:27:50 | Step 156227457 / 1000000001 | TPS 17379.6 | ETA 13:29:09
Time 02:28:00 | Step 156400848 / 1000000001 | TPS 17339 | ETA 13:30:53
Time 02:28:10 | Step 156573490 / 1000000001 | TPS 17264 | ETA 13:34:14
Time 02:28:20 | Step 156746539 / 1000000001 | TPS 17304.9 | ETA 13:32:09
Time 02:28:30 | Step 156919504 / 1000000001 | TPS 17296.4 | ETA 13:32:22
Time 02:28:40 | Step 157092432 / 1000000001 | TPS 17292.8 | ETA 13:32:23
Time 02:28:50 | Step 157266216 / 1000000001 | TPS 17378.4 | ETA 13:28:13
Time 02:29:00 | Step 157439964 / 1000000001 | TPS 17374.7 | ETA 13:28:13
Time 02:29:10 | Step 157613618 / 1000000001 | TPS 17365.4 | ETA 13:28:29
Time 02:29:20 | Step 157787127 / 1000000001 | TPS 17350.7 | ETA 13:29:00
Time 02:29:30 | Step 157960349 / 1000000001 | TPS 17322.1 | ETA 13:30:10
Time 02:29:40 | Step 158134842 / 1000000001 | TPS 17449.2 | ETA 13:24:06
Time 02:29:50 | Step 158309715 / 1000000001 | TPS 17487.3 | ETA 13:22:11
Time 02:30:00 | Step 158484389 / 1000000001 | TPS 17467.3 | ETA 13:22:56
Time 02:30:10 | Step 158658573 / 1000000001 | TPS 17418.2 | ETA 13:25:02
Time 02:30:20 | Step 158832182 / 1000000001 | TPS 17360.8 | ETA 13:27:32
Time 02:30:30 | Step 159005867 / 1000000001 | TPS 17368.5 | ETA 13:27:00
Time 02:30:40 | Step 159180050 / 1000000001 | TPS 17418.2 | ETA 13:24:32
Time 02:30:50 | Step 159353642 / 1000000001 | TPS 17359.2 | ETA 13:27:06
Time 02:31:00 | Step 159527266 / 1000000001 | TPS 17362.3 | ETA 13:26:47
Time 02:31:10 | Step 159701389 / 1000000001 | TPS 17412.3 | ETA 13:24:18
Time 02:31:20 | Step 159874234 / 1000000001 | TPS 17284.4 | ETA 13:30:06
Time 02:31:30 | Step 160047091 / 1000000001 | TPS 17285.7 | ETA 13:29:52
Time 02:31:40 | Step 160219809 / 1000000001 | TPS 17271.7 | ETA 13:30:21
Time 02:31:50 | Step 160392322 / 1000000001 | TPS 17251.2 | ETA 13:31:09
Time 02:32:00 | Step 160565929 / 1000000001 | TPS 17360.7 | ETA 13:25:52
Time 02:32:10 | Step 160739608 / 1000000001 | TPS 17367.9 | ETA 13:25:22
Time 02:32:20 | Step 160913294 / 1000000001 | TPS 17368.6 | ETA 13:25:10
Time 02:32:30 | Step 161087173 / 1000000001 | TPS 17387.9 | ETA 13:24:06
Time 02:32:40 | Step 161260743 / 1000000001 | TPS 17357 | ETA 13:25:22
Time 02:32:50 | Step 161434121 / 1000000001 | TPS 17337.8 | ETA 13:26:06
Time 02:33:00 | Step 161607761 / 1000000001 | TPS 17364 | ETA 13:24:43
Time 02:33:10 | Step 161781451 / 1000000001 | TPS 17369 | ETA 13:24:19
Time 02:33:20 | Step 161954646 / 1000000001 | TPS 17319.5 | ETA 13:26:27
Time 02:33:30 | Step 162127705 / 1000000001 | TPS 17305.8 | ETA 13:26:55
Time 02:33:40 | Step 162300641 / 1000000001 | TPS 17293.6 | ETA 13:27:19
Time 02:33:50 | Step 162474407 / 1000000001 | TPS 17376.5 | ETA 13:23:18
Time 02:34:00 | Step 162648175 / 1000000001 | TPS 17376.7 | ETA 13:23:08
Time 02:34:10 | Step 162822065 / 1000000001 | TPS 17388.9 | ETA 13:22:24
Time 02:34:20 | Step 162996414 / 1000000001 | TPS 17434.9 | ETA 13:20:07
Time 02:34:30 | Step 163170109 / 1000000001 | TPS 17369.4 | ETA 13:22:58
Time 02:34:40 | Step 163344057 / 1000000001 | TPS 17394.6 | ETA 13:21:38
Time 02:34:50 | Step 163517449 / 1000000001 | TPS 17339.1 | ETA 13:24:02
Time 02:35:00 | Step 163691630 / 1000000001 | TPS 17418.1 | ETA 13:20:13
Time 02:35:10 | Step 163865851 / 1000000001 | TPS 17422.1 | ETA 13:19:52
Time 02:35:20 | Step 164039531 / 1000000001 | TPS 17368 | ETA 13:22:12
Time 02:35:30 | Step 164213379 / 1000000001 | TPS 17384.6 | ETA 13:21:16
Time 02:35:40 | Step 164387492 / 1000000001 | TPS 17411.3 | ETA 13:19:52
Time 02:35:50 | Step 164561735 / 1000000001 | TPS 17424.3 | ETA 13:19:06
Time 02:36:00 | Step 164735733 / 1000000001 | TPS 17399.8 | ETA 13:20:04
Time 02:36:10 | Step 164909058 / 1000000001 | TPS 17332.4 | ETA 13:23:00
Time 02:36:20 | Step 165082648 / 1000000001 | TPS 17359 | ETA 13:21:37
Time 02:36:30 | Step 165256156 / 1000000001 | TPS 17350.8 | ETA 13:21:49
Time 02:36:40 | Step 165429017 / 1000000001 | TPS 17285.9 | ETA 13:24:40
Time 02:36:50 | Step 165602409 / 1000000001 | TPS 17339.1 | ETA 13:22:02
Time 02:37:00 | Step 165776201 / 1000000001 | TPS 17379 | ETA 13:20:01
Time 02:37:10 | Step 165950548 / 1000000001 | TPS 17434.6 | ETA 13:17:18
Time 02:37:20 | Step 166124653 / 1000000001 | TPS 17410.5 | ETA 13:18:14
Time 02:37:30 | Step 166298065 / 1000000001 | TPS 17341.1 | ETA 13:21:16
Time 02:37:40 | Step 166470646 / 1000000001 | TPS 17258.1 | ETA 13:24:57
Time 02:37:50 | Step 166642913 / 1000000001 | TPS 17226.7 | ETA 13:26:15
Time 02:38:00 | Step 166815633 / 1000000001 | TPS 17272 | ETA 13:23:59
Time 02:38:10 | Step 166988322 / 1000000001 | TPS 17268.9 | ETA 13:23:57
Time 02:38:20 | Step 167161388 / 1000000001 | TPS 17306.6 | ETA 13:22:02
Time 02:38:30 | Step 167334856 / 1000000001 | TPS 17346.7 | ETA 13:20:01
Time 02:38:40 | Step 167508392 / 1000000001 | TPS 17353.5 | ETA 13:19:32
Time 02:38:50 | Step 167681913 / 1000000001 | TPS 17352.1 | ETA 13:19:26
Time 02:39:00 | Step 167855368 / 1000000001 | TPS 17345.5 | ETA 13:19:34
Time 02:39:10 | Step 168027680 / 1000000001 | TPS 17231.2 | ETA 13:24:42
Time 02:39:20 | Step 168201111 / 1000000001 | TPS 17343 | ETA 13:19:21
Time 02:39:30 | Step 168374690 / 1000000001 | TPS 17357.9 | ETA 13:18:30
Time 02:39:40 | Step 168549168 / 1000000001 | TPS 17447.6 | ETA 13:14:14
Time 02:39:50 | Step 168723364 / 1000000001 | TPS 17419.6 | ETA 13:15:20
Time 02:40:00 | Step 168898202 / 1000000001 | TPS 17483.7 | ETA 13:12:15
Time 02:40:10 | Step 169071872 / 1000000001 | TPS 17367 | ETA 13:17:25
Time 02:40:20 | Step 169246955 / 1000000001 | TPS 17508.3 | ETA 13:10:49
Time 02:40:30 | Step 169421961 / 1000000001 | TPS 17500.5 | ETA 13:11:00
Time 02:40:40 | Step 169596697 / 1000000001 | TPS 17473.4 | ETA 13:12:03
Time 02:40:50 | Step 169771080 / 1000000001 | TPS 17438.3 | ETA 13:13:29
Time 02:41:00 | Step 169943816 / 1000000001 | TPS 17273.6 | ETA 13:20:53
Time 02:41:10 | Step 170118000 / 1000000001 | TPS 17418.3 | ETA 13:14:04
Time 02:41:20 | Step 170292157 / 1000000001 | TPS 17415.6 | ETA 13:14:01
Time 02:41:30 | Step 170466284 / 1000000001 | TPS 17412.7 | ETA 13:13:59
Time 02:41:40 | Step 170640614 / 1000000001 | TPS 17432.9 | ETA 13:12:54
Time 02:41:50 | Step 170814423 / 1000000001 | TPS 17380.9 | ETA 13:15:06
Time 02:42:00 | Step 170988444 / 1000000001 | TPS 17402.1 | ETA 13:13:58
Time 02:42:10 | Step 171161528 / 1000000001 | TPS 17308.4 | ETA 13:18:06
Time 02:42:20 | Step 171335552 / 1000000001 | TPS 17402.4 | ETA 13:13:37
Time 02:42:30 | Step 171509389 / 1000000001 | TPS 17383.6 | ETA 13:14:19
Time 02:42:40 | Step 171683349 / 1000000001 | TPS 17395.8 | ETA 13:13:35
Time 02:42:50 | Step 171857479 / 1000000001 | TPS 17413 | ETA 13:12:38
Time 02:43:00 | Step 172031587 / 1000000001 | TPS 17410.8 | ETA 13:12:34
Time 02:43:10 | Step 172205871 / 1000000001 | TPS 17428.2 | ETA 13:11:37
Time 02:43:20 | Step 172381025 / 1000000001 | TPS 17515.2 | ETA 13:07:31
Time 02:43:30 | Step 172555525 / 1000000001 | TPS 17450 | ETA 13:10:18
Time 02:43:40 | Step 172728613 / 1000000001 | TPS 17308.8 | ETA 13:16:34
Time 02:43:50 | Step 172902596 / 1000000001 | TPS 17398.2 | ETA 13:12:19
Time 02:44:00 | Step 173076020 / 1000000001 | TPS 17342.3 | ETA 13:14:42
Time 02:44:10 | Step 173249904 / 1000000001 | TPS 17388.4 | ETA 13:12:26
Time 02:44:20 | Step 173424353 / 1000000001 | TPS 17444.9 | ETA 13:09:42
Time 02:44:30 | Step 173599229 / 1000000001 | TPS 17487.4 | ETA 13:07:36
Time 02:44:40 | Step 173773950 / 1000000001 | TPS 17472 | ETA 13:08:08
Time 02:44:50 | Step 173948266 / 1000000001 | TPS 17431.5 | ETA 13:09:48
Time 02:45:00 | Step 174121991 / 1000000001 | TPS 17372.5 | ETA 13:12:19
Time 02:45:10 | Step 174295552 / 1000000001 | TPS 17356 | ETA 13:12:54
Time 02:45:20 | Step 174469200 / 1000000001 | TPS 17364.6 | ETA 13:12:21
Time 02:45:30 | Step 174642670 / 1000000001 | TPS 17346.9 | ETA 13:12:59
Time 02:45:40 | Step 174816425 / 1000000001 | TPS 17375.5 | ETA 13:11:31
Time 02:45:50 | Step 174990380 / 1000000001 | TPS 17395.5 | ETA 13:10:26
Time 02:46:00 | Step 175164635 / 1000000001 | TPS 17425.5 | ETA 13:08:55
Time 02:46:10 | Step 175337512 / 1000000001 | TPS 17287.6 | ETA 13:15:02
Time 02:46:20 | Step 175510622 / 1000000001 | TPS 17310.9 | ETA 13:13:48
Time 02:46:30 | Step 175684619 / 1000000001 | TPS 17399.6 | ETA 13:09:35
Time 02:46:40 | Step 175857711 / 1000000001 | TPS 17309.1 | ETA 13:13:33
Time 02:46:50 | Step 176030603 / 1000000001 | TPS 17289.1 | ETA 13:14:18
Time 02:47:00 | Step 176203851 / 1000000001 | TPS 17324.7 | ETA 13:12:30
Time 02:47:10 | Step 176377162 / 1000000001 | TPS 17331.1 | ETA 13:12:02
Time 02:47:20 | Step 176549106 / 1000000001 | TPS 17194.3 | ETA 13:18:10
Time 02:47:30 | Step 176723543 / 1000000001 | TPS 17443.6 | ETA 13:06:36
Time 02:47:40 | Step 176898066 / 1000000001 | TPS 17452.3 | ETA 13:06:03
Time 02:47:50 | Step 177071196 / 1000000001 | TPS 17313 | ETA 13:12:12
Time 02:48:00 | Step 177244280 / 1000000001 | TPS 17308.4 | ETA 13:12:15
Time 02:48:10 | Step 177417608 / 1000000001 | TPS 17332.7 | ETA 13:10:58
Time 02:48:20 | Step 177590764 / 1000000001 | TPS 17315.6 | ETA 13:11:35
Time 02:48:30 | Step 177764334 / 1000000001 | TPS 17357 | ETA 13:09:32
Time 02:48:40 | Step 177938535 / 1000000001 | TPS 17420.1 | ETA 13:06:30
Time 02:48:50 | Step 178112256 / 1000000001 | TPS 17372.1 | ETA 13:08:30
Time 02:49:00 | Step 178284487 / 1000000001 | TPS 17223.1 | ETA 13:15:10
Time 02:49:10 | Step 178456732 / 1000000001 | TPS 17224.4 | ETA 13:14:56
Time 02:49:20 | Step 178629267 / 1000000001 | TPS 17253.4 | ETA 13:13:26
Time 02:49:30 | Step 178803610 / 1000000001 | TPS 17434.1 | ETA 13:05:02
[...]
Time 15:09:21 | Step 950969031 / 1000000001 | TPS 18183.9 | ETA 00:44:56
Time 15:09:31 | Step 951150422 / 1000000001 | TPS 18139.1 | ETA 00:44:53
Time 15:09:41 | Step 951333674 / 1000000001 | TPS 18325.1 | ETA 00:44:15
Time 15:09:51 | Step 951516250 / 1000000001 | TPS 18257.6 | ETA 00:44:15
Time 15:10:01 | Step 951699018 / 1000000001 | TPS 18276.8 | ETA 00:44:02
Time 15:10:11 | Step 951882353 / 1000000001 | TPS 18333.4 | ETA 00:43:44
Time 15:10:21 | Step 952063557 / 1000000001 | TPS 18120.4 | ETA 00:44:05
Time 15:10:31 | Step 952245943 / 1000000001 | TPS 18238.6 | ETA 00:43:38
Time 15:10:41 | Step 952428790 / 1000000001 | TPS 18284.7 | ETA 00:43:21
Time 15:10:51 | Step 952611904 / 1000000001 | TPS 18311.4 | ETA 00:43:07
Time 15:11:01 | Step 952794883 / 1000000001 | TPS 18297.8 | ETA 00:42:59
Time 15:11:11 | Step 952977794 / 1000000001 | TPS 18291.1 | ETA 00:42:50
Time 15:11:21 | Step 953159838 / 1000000001 | TPS 18204.4 | ETA 00:42:53
Time 15:11:31 | Step 953343090 / 1000000001 | TPS 18325.1 | ETA 00:42:26
Time 15:11:41 | Step 953526034 / 1000000001 | TPS 18294.3 | ETA 00:42:20
Time 15:11:51 | Step 953708997 / 1000000001 | TPS 18296.3 | ETA 00:42:10
Time 15:12:01 | Step 953892464 / 1000000001 | TPS 18346.7 | ETA 00:41:53
Time 15:12:11 | Step 954074308 / 1000000001 | TPS 18184.4 | ETA 00:42:05
Time 15:12:21 | Step 954256818 / 1000000001 | TPS 18251 | ETA 00:41:46
Time 15:12:31 | Step 954440270 / 1000000001 | TPS 18345.1 | ETA 00:41:23
Time 15:12:41 | Step 954622990 / 1000000001 | TPS 18272 | ETA 00:41:23
Time 15:12:51 | Step 954805930 / 1000000001 | TPS 18294 | ETA 00:41:10
Time 15:13:01 | Step 954988798 / 1000000001 | TPS 18286.7 | ETA 00:41:01
Time 15:13:11 | Step 955170332 / 1000000001 | TPS 18153.4 | ETA 00:41:09
Time 15:13:21 | Step 955353258 / 1000000001 | TPS 18292.5 | ETA 00:40:40
Time 15:13:31 | Step 955536332 / 1000000001 | TPS 18307.4 | ETA 00:40:28
Time 15:13:41 | Step 955719243 / 1000000001 | TPS 18290.9 | ETA 00:40:20
Time 15:13:51 | Step 955902206 / 1000000001 | TPS 18296.2 | ETA 00:40:10
Time 15:14:01 | Step 956082866 / 1000000001 | TPS 18065.9 | ETA 00:40:30
Time 15:14:11 | Step 956265610 / 1000000001 | TPS 18274.4 | ETA 00:39:53
Time 15:14:21 | Step 956448683 / 1000000001 | TPS 18307.3 | ETA 00:39:38
Time 15:14:31 | Step 956631787 / 1000000001 | TPS 18310.3 | ETA 00:39:28
Time 15:14:41 | Step 956814270 / 1000000001 | TPS 18248.3 | ETA 00:39:26
Time 15:14:51 | Step 956996433 / 1000000001 | TPS 18216.3 | ETA 00:39:20
Time 15:15:01 | Step 957177319 / 1000000001 | TPS 18088.5 | ETA 00:39:27
Time 15:15:11 | Step 957360236 / 1000000001 | TPS 18291.6 | ETA 00:38:51
Time 15:15:21 | Step 957543132 / 1000000001 | TPS 18289.6 | ETA 00:38:41
Time 15:15:31 | Step 957726350 / 1000000001 | TPS 18321.8 | ETA 00:38:27
Time 15:15:41 | Step 957909695 / 1000000001 | TPS 18334.3 | ETA 00:38:15
Time 15:15:51 | Step 958091266 / 1000000001 | TPS 18157.1 | ETA 00:38:28
Time 15:16:01 | Step 958274914 / 1000000001 | TPS 18364.7 | ETA 00:37:52
Time 15:16:11 | Step 958458261 / 1000000001 | TPS 18334.6 | ETA 00:37:45
Time 15:16:21 | Step 958641487 / 1000000001 | TPS 18322.6 | ETA 00:37:37
Time 15:16:31 | Step 958824097 / 1000000001 | TPS 18261 | ETA 00:37:34
Time 15:16:41 | Step 959005637 / 1000000001 | TPS 18153.9 | ETA 00:37:38
Time 15:16:51 | Step 959188984 / 1000000001 | TPS 18334.6 | ETA 00:37:05
Time 15:17:01 | Step 959372086 / 1000000001 | TPS 18310.2 | ETA 00:36:58
Time 15:17:11 | Step 959555308 / 1000000001 | TPS 18322.1 | ETA 00:36:47
Time 15:17:21 | Step 959738666 / 1000000001 | TPS 18335.8 | ETA 00:36:35
Time 15:17:31 | Step 959922042 / 1000000001 | TPS 18337.6 | ETA 00:36:25
Time 15:17:41 | Step 960104013 / 1000000001 | TPS 18197.1 | ETA 00:36:32
Time 15:17:51 | Step 960287914 / 1000000001 | TPS 18390.1 | ETA 00:35:59
Time 15:18:01 | Step 960472009 / 1000000001 | TPS 18409.5 | ETA 00:35:47
Time 15:18:11 | Step 960655601 / 1000000001 | TPS 18359.1 | ETA 00:35:43
Time 15:18:21 | Step 960839621 / 1000000001 | TPS 18402 | ETA 00:35:28
Time 15:18:31 | Step 961022312 / 1000000001 | TPS 18269 | ETA 00:35:33
Time 15:18:41 | Step 961205516 / 1000000001 | TPS 18320.3 | ETA 00:35:17
Time 15:18:51 | Step 961388893 / 1000000001 | TPS 18337.7 | ETA 00:35:05
Time 15:19:01 | Step 961572452 / 1000000001 | TPS 18355.8 | ETA 00:34:53
Time 15:19:11 | Step 961755569 / 1000000001 | TPS 18311.7 | ETA 00:34:48
Time 15:19:21 | Step 961938391 / 1000000001 | TPS 18282.1 | ETA 00:34:41
Time 15:19:31 | Step 962119815 / 1000000001 | TPS 18142.3 | ETA 00:34:47
Time 15:19:41 | Step 962302636 / 1000000001 | TPS 18282 | ETA 00:34:21
Time 15:19:51 | Step 962484055 / 1000000001 | TPS 18141.7 | ETA 00:34:27
Time 15:20:01 | Step 962667421 / 1000000001 | TPS 18336.5 | ETA 00:33:55
Time 15:20:11 | Step 962850717 / 1000000001 | TPS 18329.5 | ETA 00:33:46
Time 15:20:21 | Step 963031612 / 1000000001 | TPS 18089.5 | ETA 00:34:03
Time 15:20:31 | Step 963214547 / 1000000001 | TPS 18293.5 | ETA 00:33:30
Time 15:20:41 | Step 963397115 / 1000000001 | TPS 18256.8 | ETA 00:33:24
Time 15:20:51 | Step 963580735 / 1000000001 | TPS 18361.9 | ETA 00:33:03
Time 15:21:01 | Step 963763819 / 1000000001 | TPS 18308.3 | ETA 00:32:59
Time 15:21:11 | Step 963947305 / 1000000001 | TPS 18348.6 | ETA 00:32:44
Time 15:21:21 | Step 964124793 / 1000000001 | TPS 17748.6 | ETA 00:33:41
Time 15:21:31 | Step 964308018 / 1000000001 | TPS 18322.5 | ETA 00:32:27
Time 15:21:41 | Step 964490021 / 1000000001 | TPS 18200.2 | ETA 00:32:31
Time 15:21:51 | Step 964673563 / 1000000001 | TPS 18354.2 | ETA 00:32:04
Time 15:22:01 | Step 964857205 / 1000000001 | TPS 18364.1 | ETA 00:31:53
Time 15:22:11 | Step 965037976 / 1000000001 | TPS 18077.1 | ETA 00:32:14
Time 15:22:21 | Step 965222088 / 1000000001 | TPS 18411.2 | ETA 00:31:28
Time 15:22:31 | Step 965406210 / 1000000001 | TPS 18412 | ETA 00:31:18
Time 15:22:41 | Step 965590514 / 1000000001 | TPS 18430.4 | ETA 00:31:06
Time 15:22:51 | Step 965774889 / 1000000001 | TPS 18437.3 | ETA 00:30:56
Time 15:23:01 | Step 965959369 / 1000000001 | TPS 18447.9 | ETA 00:30:45
Time 15:23:11 | Step 966142947 / 1000000001 | TPS 18357.6 | ETA 00:30:44
Time 15:23:21 | Step 966326335 / 1000000001 | TPS 18338.8 | ETA 00:30:36
Time 15:23:31 | Step 966510466 / 1000000001 | TPS 18413 | ETA 00:30:18
Time 15:23:41 | Step 966694224 / 1000000001 | TPS 18375.8 | ETA 00:30:12
Time 15:23:51 | Step 966877512 / 1000000001 | TPS 18328.7 | ETA 00:30:07
Time 15:24:01 | Step 967057325 / 1000000001 | TPS 17981.1 | ETA 00:30:32
Time 15:24:11 | Step 967240796 / 1000000001 | TPS 18347.1 | ETA 00:29:45
Time 15:24:21 | Step 967423537 / 1000000001 | TPS 18274.1 | ETA 00:29:42
Time 15:24:31 | Step 967607180 / 1000000001 | TPS 18364.3 | ETA 00:29:23
Time 15:24:41 | Step 967790666 / 1000000001 | TPS 18348.6 | ETA 00:29:15
Time 15:24:51 | Step 967974166 / 1000000001 | TPS 18350 | ETA 00:29:05
Time 15:25:01 | Step 968154854 / 1000000001 | TPS 18068.7 | ETA 00:29:22
Time 15:25:11 | Step 968338089 / 1000000001 | TPS 18323.4 | ETA 00:28:47
Time 15:25:21 | Step 968521708 / 1000000001 | TPS 18361.8 | ETA 00:28:34
Time 15:25:31 | Step 968705303 / 1000000001 | TPS 18359.4 | ETA 00:28:24
Time 15:25:41 | Step 968889128 / 1000000001 | TPS 18382.5 | ETA 00:28:12
Time 15:25:51 | Step 969070177 / 1000000001 | TPS 18104.9 | ETA 00:28:28
Time 15:26:01 | Step 969253600 / 1000000001 | TPS 18342.2 | ETA 00:27:56
Time 15:26:11 | Step 969437192 / 1000000001 | TPS 18359.2 | ETA 00:27:44
Time 15:26:21 | Step 969620198 / 1000000001 | TPS 18300.5 | ETA 00:27:40
Time 15:26:31 | Step 969803019 / 1000000001 | TPS 18282.1 | ETA 00:27:31
Time 15:26:41 | Step 969986317 / 1000000001 | TPS 18329.7 | ETA 00:27:17
Time 15:26:51 | Step 970166283 / 1000000001 | TPS 17996.5 | ETA 00:27:37
Time 15:27:01 | Step 970349524 / 1000000001 | TPS 18324 | ETA 00:26:58
Time 15:27:11 | Step 970532998 / 1000000001 | TPS 18347.4 | ETA 00:26:46
Time 15:27:21 | Step 970716683 / 1000000001 | TPS 18368.5 | ETA 00:26:34
Time 15:27:31 | Step 970900294 / 1000000001 | TPS 18361.1 | ETA 00:26:24
Time 15:27:41 | Step 971080831 / 1000000001 | TPS 18053.6 | ETA 00:26:41
Time 15:27:51 | Step 971264134 / 1000000001 | TPS 18330.3 | ETA 00:26:07
Time 15:28:01 | Step 971447499 / 1000000001 | TPS 18336.5 | ETA 00:25:57
Time 15:28:11 | Step 971630492 / 1000000001 | TPS 18299.3 | ETA 00:25:50
Time 15:28:21 | Step 971813668 / 1000000001 | TPS 18317.6 | ETA 00:25:38
Time 15:28:31 | Step 971996863 / 1000000001 | TPS 18319.4 | ETA 00:25:28
Time 15:28:41 | Step 972177483 / 1000000001 | TPS 18061.9 | ETA 00:25:40
Time 15:28:51 | Step 972361073 / 1000000001 | TPS 18359 | ETA 00:25:05
Time 15:29:01 | Step 972544589 / 1000000001 | TPS 18351.6 | ETA 00:24:56
Time 15:29:11 | Step 972728211 / 1000000001 | TPS 18362.2 | ETA 00:24:45
Time 15:29:21 | Step 972911891 / 1000000001 | TPS 18367.9 | ETA 00:24:34
Time 15:29:31 | Step 973093172 / 1000000001 | TPS 18128 | ETA 00:24:44
Time 15:29:41 | Step 973276780 / 1000000001 | TPS 18360.8 | ETA 00:24:15
Time 15:29:51 | Step 973459580 / 1000000001 | TPS 18280 | ETA 00:24:11
Time 15:30:01 | Step 973642791 / 1000000001 | TPS 18321.1 | ETA 00:23:58
Time 15:30:11 | Step 973826178 / 1000000001 | TPS 18338.6 | ETA 00:23:47
Time 15:30:21 | Step 974006719 / 1000000001 | TPS 18054.1 | ETA 00:23:59
Time 15:30:31 | Step 974189808 / 1000000001 | TPS 18308.9 | ETA 00:23:29
Time 15:30:41 | Step 974373134 / 1000000001 | TPS 18332.6 | ETA 00:23:17
Time 15:30:51 | Step 974556442 / 1000000001 | TPS 18330.8 | ETA 00:23:08
Time 15:31:01 | Step 974739634 / 1000000001 | TPS 18319.2 | ETA 00:22:58
Time 15:31:11 | Step 974922778 / 1000000001 | TPS 18314.3 | ETA 00:22:49
Time 15:31:21 | Step 975103368 / 1000000001 | TPS 18058.9 | ETA 00:22:58
Time 15:31:31 | Step 975286418 / 1000000001 | TPS 18305 | ETA 00:22:30
Time 15:31:41 | Step 975469156 / 1000000001 | TPS 18273.7 | ETA 00:22:22
Time 15:31:51 | Step 975651261 / 1000000001 | TPS 18210.5 | ETA 00:22:17
Time 15:32:01 | Step 975833590 / 1000000001 | TPS 18232.8 | ETA 00:22:05
Time 15:32:11 | Step 976014547 / 1000000001 | TPS 18095.7 | ETA 00:22:05
Time 15:32:21 | Step 976197887 / 1000000001 | TPS 18333.9 | ETA 00:21:38
Time 15:32:31 | Step 976381091 / 1000000001 | TPS 18320.3 | ETA 00:21:29
Time 15:32:41 | Step 976564627 / 1000000001 | TPS 18353.5 | ETA 00:21:16
Time 15:32:51 | Step 976748163 / 1000000001 | TPS 18353.5 | ETA 00:21:06
Time 15:33:01 | Step 976931585 / 1000000001 | TPS 18342.2 | ETA 00:20:57
Time 15:33:11 | Step 977112158 / 1000000001 | TPS 18057.2 | ETA 00:21:07
Time 15:33:21 | Step 977295956 / 1000000001 | TPS 18379.8 | ETA 00:20:35
Time 15:33:31 | Step 977479772 / 1000000001 | TPS 18381.4 | ETA 00:20:25
Time 15:33:41 | Step 977663101 / 1000000001 | TPS 18332.7 | ETA 00:20:18
Time 15:33:51 | Step 977845919 / 1000000001 | TPS 18281.8 | ETA 00:20:11
Time 15:34:01 | Step 978026531 / 1000000001 | TPS 18061.2 | ETA 00:20:16
Time 15:34:11 | Step 978209847 / 1000000001 | TPS 18331.6 | ETA 00:19:48
Time 15:34:21 | Step 978393364 / 1000000001 | TPS 18351.7 | ETA 00:19:37
Time 15:34:31 | Step 978577254 / 1000000001 | TPS 18389 | ETA 00:19:24
Time 15:34:41 | Step 978760306 / 1000000001 | TPS 18305.2 | ETA 00:19:20
Time 15:34:51 | Step 978943157 / 1000000001 | TPS 18285 | ETA 00:19:11
Time 15:35:01 | Step 979123263 / 1000000001 | TPS 18010.5 | ETA 00:19:19
Time 15:35:11 | Step 979306127 / 1000000001 | TPS 18286.3 | ETA 00:18:51
Time 15:35:21 | Step 979488505 / 1000000001 | TPS 18237.7 | ETA 00:18:44
Time 15:35:31 | Step 979671005 / 1000000001 | TPS 18250 | ETA 00:18:33
Time 15:35:41 | Step 979853505 / 1000000001 | TPS 18249.9 | ETA 00:18:23
Time 15:35:51 | Step 980032623 / 1000000001 | TPS 17911.8 | ETA 00:18:34
Time 15:36:01 | Step 980216001 / 1000000001 | TPS 18337.7 | ETA 00:17:58
Time 15:36:11 | Step 980398994 / 1000000001 | TPS 18299.3 | ETA 00:17:51
Time 15:36:21 | Step 980582089 / 1000000001 | TPS 18309.3 | ETA 00:17:40
Time 15:36:31 | Step 980765364 / 1000000001 | TPS 18327.4 | ETA 00:17:29
Time 15:36:41 | Step 980948583 / 1000000001 | TPS 18321.8 | ETA 00:17:19
Time 15:36:51 | Step 981127752 / 1000000001 | TPS 17916.9 | ETA 00:17:33
Time 15:37:01 | Step 981310907 / 1000000001 | TPS 18315.5 | ETA 00:17:00
Time 15:37:11 | Step 981493854 / 1000000001 | TPS 18294.6 | ETA 00:16:51
Time 15:37:21 | Step 981676847 / 1000000001 | TPS 18299.3 | ETA 00:16:41
Time 15:37:31 | Step 981860268 / 1000000001 | TPS 18342 | ETA 00:16:28
Time 15:37:41 | Step 982040482 / 1000000001 | TPS 18021.4 | ETA 00:16:36
Time 15:37:51 | Step 982223397 / 1000000001 | TPS 18291.5 | ETA 00:16:11
Time 15:38:01 | Step 982406686 / 1000000001 | TPS 18328.8 | ETA 00:15:59
Time 15:38:11 | Step 982590230 / 1000000001 | TPS 18354.3 | ETA 00:15:48
Time 15:38:21 | Step 982773375 / 1000000001 | TPS 18314.5 | ETA 00:15:40
Time 15:38:31 | Step 982956067 / 1000000001 | TPS 18269.2 | ETA 00:15:32
Time 15:38:41 | Step 983136718 / 1000000001 | TPS 18065 | ETA 00:15:33
Time 15:38:51 | Step 983319883 / 1000000001 | TPS 18316.4 | ETA 00:15:10
Time 15:39:01 | Step 983502146 / 1000000001 | TPS 18226.2 | ETA 00:15:05
Time 15:39:11 | Step 983683965 / 1000000001 | TPS 18181.9 | ETA 00:14:57
Time 15:39:21 | Step 983866347 / 1000000001 | TPS 18238.2 | ETA 00:14:44
Time 15:39:31 | Step 984048044 / 1000000001 | TPS 18169.6 | ETA 00:14:37
Time 15:39:41 | Step 984232048 / 1000000001 | TPS 18400.3 | ETA 00:14:16
Time 15:39:51 | Step 984416142 / 1000000001 | TPS 18409.4 | ETA 00:14:06
Time 15:40:01 | Step 984599830 / 1000000001 | TPS 18368.8 | ETA 00:13:58
Time 15:40:11 | Step 984783599 / 1000000001 | TPS 18376.9 | ETA 00:13:48
Time 15:40:21 | Step 984967212 / 1000000001 | TPS 18361.2 | ETA 00:13:38
Time 15:40:31 | Step 985147744 / 1000000001 | TPS 18053.2 | ETA 00:13:42
Time 15:40:41 | Step 985331265 / 1000000001 | TPS 18352 | ETA 00:13:19
Time 15:40:51 | Step 985514495 / 1000000001 | TPS 18322.9 | ETA 00:13:10
Time 15:41:01 | Step 985697773 / 1000000001 | TPS 18327.8 | ETA 00:13:00
Time 15:41:11 | Step 985880713 / 1000000001 | TPS 18293.9 | ETA 00:12:51
Time 15:41:21 | Step 986060927 / 1000000001 | TPS 18021.4 | ETA 00:12:53
Time 15:41:31 | Step 986244137 / 1000000001 | TPS 18320.9 | ETA 00:12:30
Time 15:41:41 | Step 986426915 / 1000000001 | TPS 18277.8 | ETA 00:12:22
Time 15:41:51 | Step 986609570 / 1000000001 | TPS 18265.4 | ETA 00:12:13
Time 15:42:01 | Step 986792370 / 1000000001 | TPS 18279.9 | ETA 00:12:02
Time 15:42:11 | Step 986975346 / 1000000001 | TPS 18297.6 | ETA 00:11:51
Time 15:42:21 | Step 987155518 / 1000000001 | TPS 18017.2 | ETA 00:11:52
Time 15:42:31 | Step 987338783 / 1000000001 | TPS 18326.5 | ETA 00:11:30
Time 15:42:41 | Step 987522246 / 1000000001 | TPS 18346.2 | ETA 00:11:20
Time 15:42:51 | Step 987705673 / 1000000001 | TPS 18342.7 | ETA 00:11:10
Time 15:43:01 | Step 987888601 / 1000000001 | TPS 18292.5 | ETA 00:11:02
Time 15:43:11 | Step 988069628 / 1000000001 | TPS 18102.7 | ETA 00:10:59
Time 15:43:21 | Step 988252678 / 1000000001 | TPS 18305 | ETA 00:10:41
Time 15:43:31 | Step 988433843 / 1000000001 | TPS 18116.4 | ETA 00:10:38
Time 15:43:41 | Step 988616030 / 1000000001 | TPS 18218.7 | ETA 00:10:24
Time 15:43:51 | Step 988798970 / 1000000001 | TPS 18294 | ETA 00:10:12
Time 15:44:01 | Step 988980909 / 1000000001 | TPS 18193.7 | ETA 00:10:05
Time 15:44:11 | Step 989159465 / 1000000001 | TPS 17855.4 | ETA 00:10:07
Time 15:44:21 | Step 989342529 / 1000000001 | TPS 18306.3 | ETA 00:09:42
Time 15:44:31 | Step 989526249 / 1000000001 | TPS 18372 | ETA 00:09:30
Time 15:44:41 | Step 989700001 / 1000000001 | TPS 17254.4 | ETA 00:09:56
Time 15:44:51 | Step 989883272 / 1000000001 | TPS 18326.9 | ETA 00:09:12
Time 15:45:01 | Step 990063403 / 1000000001 | TPS 18013.1 | ETA 00:09:11
Time 15:45:11 | Step 990246882 / 1000000001 | TPS 18347.9 | ETA 00:08:51
Time 15:45:21 | Step 990429573 / 1000000001 | TPS 18269.1 | ETA 00:08:43
Time 15:45:31 | Step 990612637 / 1000000001 | TPS 18306.4 | ETA 00:08:32
Time 15:45:41 | Step 990795453 / 1000000001 | TPS 18281.5 | ETA 00:08:23
Time 15:45:51 | Step 990978013 / 1000000001 | TPS 18256 | ETA 00:08:14
Time 15:46:01 | Step 991158608 / 1000000001 | TPS 18059.5 | ETA 00:08:09
Time 15:46:11 | Step 991342353 / 1000000001 | TPS 18374.3 | ETA 00:07:51
Time 15:46:21 | Step 991524963 / 1000000001 | TPS 18261 | ETA 00:07:44
Time 15:46:31 | Step 991707509 / 1000000001 | TPS 18254.5 | ETA 00:07:34
Time 15:46:41 | Step 991890014 / 1000000001 | TPS 18250.4 | ETA 00:07:24
Time 15:46:51 | Step 992070294 / 1000000001 | TPS 18028 | ETA 00:07:19
Time 15:47:01 | Step 992252964 / 1000000001 | TPS 18267 | ETA 00:07:04
Time 15:47:11 | Step 992435990 / 1000000001 | TPS 18302.6 | ETA 00:06:53
Time 15:47:21 | Step 992619548 / 1000000001 | TPS 18355.8 | ETA 00:06:42
Time 15:47:31 | Step 992802653 / 1000000001 | TPS 18310.5 | ETA 00:06:33
Time 15:47:41 | Step 992985415 / 1000000001 | TPS 18276.2 | ETA 00:06:23
Time 15:47:51 | Step 993166413 / 1000000001 | TPS 18099.8 | ETA 00:06:17
Time 15:48:01 | Step 993349411 / 1000000001 | TPS 18299.8 | ETA 00:06:03
Time 15:48:11 | Step 993531934 / 1000000001 | TPS 18252.3 | ETA 00:05:54
Time 15:48:21 | Step 993714696 / 1000000001 | TPS 18276 | ETA 00:05:43
Time 15:48:31 | Step 993897848 / 1000000001 | TPS 18315.1 | ETA 00:05:33
Time 15:48:41 | Step 994077537 / 1000000001 | TPS 17968.7 | ETA 00:05:29
Time 15:48:51 | Step 994260835 / 1000000001 | TPS 18329.7 | ETA 00:05:13
Time 15:49:01 | Step 994443942 / 1000000001 | TPS 18310.7 | ETA 00:05:03
Time 15:49:11 | Step 994627201 / 1000000001 | TPS 18325.9 | ETA 00:04:53
Time 15:49:21 | Step 994810198 / 1000000001 | TPS 18299.7 | ETA 00:04:43
Time 15:49:31 | Step 994992343 / 1000000001 | TPS 18214.5 | ETA 00:04:34
Time 15:49:41 | Step 995172992 / 1000000001 | TPS 18064.9 | ETA 00:04:27
Time 15:49:51 | Step 995356089 / 1000000001 | TPS 18309.7 | ETA 00:04:13
Time 15:50:01 | Step 995538453 / 1000000001 | TPS 18236.3 | ETA 00:04:04
Time 15:50:11 | Step 995720265 / 1000000001 | TPS 18181.2 | ETA 00:03:55
Time 15:50:21 | Step 995902570 / 1000000001 | TPS 18230.5 | ETA 00:03:44
Time 15:50:31 | Step 996082818 / 1000000001 | TPS 18024.7 | ETA 00:03:37
Time 15:50:41 | Step 996266226 / 1000000001 | TPS 18340.6 | ETA 00:03:23
Time 15:50:51 | Step 996449357 / 1000000001 | TPS 18312.9 | ETA 00:03:13
Time 15:51:01 | Step 996632251 / 1000000001 | TPS 18289.3 | ETA 00:03:04
Time 15:51:11 | Step 996815495 / 1000000001 | TPS 18324.4 | ETA 00:02:53
Time 15:51:21 | Step 996998681 / 1000000001 | TPS 18318.6 | ETA 00:02:43
Time 15:51:31 | Step 997179032 / 1000000001 | TPS 18035.1 | ETA 00:02:36
Time 15:51:41 | Step 997361346 / 1000000001 | TPS 18231.2 | ETA 00:02:24
Time 15:51:51 | Step 997543712 / 1000000001 | TPS 18236.6 | ETA 00:02:14
Time 15:52:01 | Step 997725713 / 1000000001 | TPS 18199.9 | ETA 00:02:04
Time 15:52:11 | Step 997907633 / 1000000001 | TPS 18192 | ETA 00:01:55
Time 15:52:21 | Step 998087199 / 1000000001 | TPS 17956.5 | ETA 00:01:46
Time 15:52:31 | Step 998270396 / 1000000001 | TPS 18319.6 | ETA 00:01:34
Time 15:52:41 | Step 998453939 / 1000000001 | TPS 18354.3 | ETA 00:01:24
Time 15:52:51 | Step 998637228 / 1000000001 | TPS 18328.9 | ETA 00:01:14
Time 15:53:01 | Step 998820284 / 1000000001 | TPS 18305.6 | ETA 00:01:04
Time 15:53:11 | Step 999000819 / 1000000001 | TPS 18053.4 | ETA 00:00:55
Time 15:53:21 | Step 999184240 / 1000000001 | TPS 18342 | ETA 00:00:44
Time 15:53:31 | Step 999367231 / 1000000001 | TPS 18299 | ETA 00:00:34
Time 15:53:41 | Step 999550191 / 1000000001 | TPS 18296 | ETA 00:00:24
Time 15:53:51 | Step 999732038 / 1000000001 | TPS 18184.7 | ETA 00:00:14
Time 15:54:01 | Step 999915027 / 1000000001 | TPS 18298.9 | ETA 00:00:04
Time 15:54:06 | Step 1000000001 / 1000000001 | TPS 17503.9 | ETA 00:00:00
Average TPS: 17468.7
---------
-- Neighborlist stats:
120419523 normal updates / 3333334 forced updates / 0 dangerous updates
n_neigh_min: 0 / n_neigh_max: 14 / n_neigh_avg: 11.483
shortest rebuild period: 5
-- Cell list stats:
Dimension: 44, 44, 44
n_min    : 0 / n_max: 7 / n_avg: 0.0792402
** run complete **
