HOOMD-blue 2.9.6 CUDA (11.1) SINGLE SSE SSE2 
Compiled: 05/10/21
Copyright (c) 2009-2019 The Regents of the University of Michigan.
-----
You are using HOOMD-blue. Please cite the following:
* J A Anderson, J Glaser, and S C Glotzer. "HOOMD-blue: A Python package for
  high-performance molecular dynamics and hard particle Monte Carlo
  simulations", Computational Materials Science 173 (2020) 109363
-----
HOOMD-blue is running on the following GPU(s):
 [0] NVIDIA A100-SXM4-80GB 108 SM_8.0 @ 1.41 GHz, 81050 MiB DRAM, MNG
Running on the GPU
Charges (in mV) are:
[-54.0, 44.0]
[95.0, 105.0]
Particle types: ['N', 'P']
Radius of N, P and ionic radii(s):  [95.0, 105.0, 99.75]
radiusN: 95.0
radiusP: 105.0
Electrostatic prefactors are:  {('N', 'N'): 299.83507046393714, ('N', 'P'): -256.52556028581284, ('P', 'P'): 220.02192305215914}
Steric prefactors are:  {('N', 'N'): 368.3741785809289, ('N', 'P'): 387.76229324308304, ('P', 'P'): 407.15040790523716}
Lattice_type:  sc
Lattice site is: P
Putting satellite particles at a distance of 286.000000 from center particles
num_satellite_per_center: 1
snapshot_creation.py:075  |      center_unit_cell = lattice(a=lattice_spacing*2*radius_latticesite)
center_in_uc: 1
satellite_in_uc: 1
Total number of particles in each unit cell: 2
Total lattice spacing: 885.78
Setting mass N: 0.740633 (mass P: 1.000000)
['P', 'N']
Total number of lattice sites: 6750
[[-6200.45996094 -6200.45996094 -6200.45996094]
 [-6200.45996094 -5914.45996094 -6200.45996094]
 [-6200.45996094 -6200.45996094 -5314.68017578]
 ...
 [ 6200.45947266  6486.46044922  5314.68017578]
 [ 6200.45947266  6200.45947266  6200.45947266]
 [ 6200.45947266  6486.46044922  6200.45947266]]
Seed positions:
None
snapshot_creation.py:172  |      system=hoomd.init.read_snapshot(snapshot)
notice(2): Group "all" created containing 6750 particles
Box size:
Box: Lx=13286.7001953125 Ly=13286.7001953125 Lz=13286.7001953125 xy=0.0 xz=0.0 yz=0.0 dimensions=3
max_x,max_y,max_z
6643.35009765625 6643.35009765625 6643.35009765625
snapshot_creation.py:183  |          hoomd.update.box_resize(Lx = 2.*max_x+8*max_radius, Ly = 2.*max_y+8*max_radius, Lz=2.*max_z+8*max_radius, period=None,scale_particles=False)
Updated box size in presence of closed walls:
Box: Lx=14126.7001953125 Ly=14126.7001953125 Lz=14126.7001953125 xy=0.0 xz=0.0 yz=0.0 dimensions=3
Number of particles in system before adding any seed crystal:  6750
Removing lattice particles that overlap with particles of the seed crystal.........
add_interactions.py:006  |  nl = hoomd.md.nlist.cell()
add_interactions.py:007  |  nl.reset_exclusions(exclusions = ['1-2', 'body','constraint'])
notice(2): -- Neighborlist exclusion statistics -- :
notice(2): Particles with 0 exclusions             : 6750
notice(2): Neighbors included by diameter          : no
notice(2): Neighbors excluded when in the same body: no
Turning on closed walls along x/y/z with max_z: 7063.35009765625
add_interactions.py:032  |      wall_force = hoomd.md.wall.slj(wall_group,r_cut=max_radius*(2.0**(1.0/6.0)))
notice(2): Notice: slj set d_max=210.0
add_interactions.py:033  |      wall_force.force_coeff.set('N',epsilon=1,sigma=radiusN,alpha=0,r_cut=radiusN*(2.0**(1.0/6.0)))
add_interactions.py:034  |      wall_force.force_coeff.set('P',epsilon=1,sigma=radiusP,alpha=0,r_cut=radiusP*(2.0**(1.0/6.0)))
add_interactions.py:057  |  table = hoomd.md.pair.table(width=5000,nlist=nl)
*******************************************************************************************************************************************************************************
Setting potential for pair ('N', 'N') with radius_sum 190.0
add_interactions.py:080  |          table.pair_coeff.set(typei,typej, func=screened_potential_shifted_force,rmin=1.00005*radius_sum, rmax=potential_range,coeff=dict(radius_sum=radius_sum, steric_prefactor=steric_prefactors[key],electrostatic_prefactor=electrostatic_prefactors[key],H=sum_brush_lengths,d=debye_length),)
*******************************************************************************************************************************************************************************
Setting potential for pair ('N', 'P') with radius_sum 200.0
add_interactions.py:080  |          table.pair_coeff.set(typei,typej, func=screened_potential_shifted_force,rmin=1.00005*radius_sum, rmax=potential_range,coeff=dict(radius_sum=radius_sum, steric_prefactor=steric_prefactors[key],electrostatic_prefactor=electrostatic_prefactors[key],H=sum_brush_lengths,d=debye_length),)
*******************************************************************************************************************************************************************************
Setting potential for pair ('P', 'P') with radius_sum 210.0
add_interactions.py:080  |          table.pair_coeff.set(typei,typej, func=screened_potential_shifted_force,rmin=1.00005*radius_sum, rmax=potential_range,coeff=dict(radius_sum=radius_sum, steric_prefactor=steric_prefactors[key],electrostatic_prefactor=electrostatic_prefactors[key],H=sum_brush_lengths,d=debye_length),)
i,j,key,potential_min, potential_min_location
(0, 0, ('N', 'N'), -1.6940658945086007e-21, 293.7379999999599)
(0, 1, ('N', 'P'), -6.50000641017184, 218.57731199999816)
(1, 1, ('P', 'P'), -1.6940658945086007e-21, 313.7380000000193)
run_dlvo_spheres_metal.py:011  |  all = hoomd.group.all()
run_dlvo_spheres_metal.py:000  |  from add_interactions import *

if temperature.find(':')>0:
    temp_list = np.array( temperature.split(':') ,dtype=float)
    assert len(temp_list)%2==0 and len(temp_list)>=0,"must give an even number of temperature arguments"
    temp_list = [tuple(x) for x in temp_list.reshape((-1,2))]
    temperature = hoomd.variant.linear_interp(points=temp_list)
else:
    temperature = float(temperature)

all = hoomd.group.all()


hoomd.analyze.log(filename=outputlogfile,
mode: langevin
run_dlvo_spheres_metal.py:029  |      hoomd.md.integrate.mode_standard(dt=dt)
run_dlvo_spheres_metal.py:030  |      ld=hoomd.md.integrate.langevin(group=all, kT=temperature, seed=seed)
notice(2): integrate.langevin/bd is using specified gamma values
Using gamma value as: 0.001
run_dlvo_spheres_metal.py:033  |          ld.set_gamma(particle_type,gamma)
run_dlvo_spheres_metal.py:033  |          ld.set_gamma(particle_type,gamma)
run_dlvo_spheres_metal.py:057  |  hoomd.dump.gsd(outputgsdfile, period=dump_frequency, group=all, overwrite=True,dynamic=['attribute','momentum','topology'])
run_dlvo_spheres_metal.py:058  |  hoomd.run(nsteps)
** starting run **
Time 00:00:12 | Step 216065 / 1000000001 | TPS 21606.4 | ETA 12:51:12
Time 00:00:22 | Step 434762 / 1000000001 | TPS 21869.6 | ETA 12:41:45
Time 00:00:32 | Step 653405 / 1000000001 | TPS 21864.2 | ETA 12:41:46
Time 00:00:42 | Step 870915 / 1000000001 | TPS 21750.9 | ETA 12:45:35
Time 00:00:52 | Step 1090344 / 1000000001 | TPS 21942.9 | ETA 12:38:43
Time 00:01:02 | Step 1308749 / 1000000001 | TPS 21840.4 | ETA 12:42:06
Time 00:01:12 | Step 1527152 / 1000000001 | TPS 21840.2 | ETA 12:41:57
Time 00:01:22 | Step 1745565 / 1000000001 | TPS 21841.3 | ETA 12:41:44
Time 00:01:32 | Step 1963345 / 1000000001 | TPS 21778 | ETA 12:43:47
Time 00:01:42 | Step 2180110 / 1000000001 | TPS 21676.5 | ETA 12:47:12
Time 00:01:52 | Step 2398853 / 1000000001 | TPS 21874.3 | ETA 12:40:06
Time 00:02:02 | Step 2617401 / 1000000001 | TPS 21854.7 | ETA 12:40:36
Time 00:02:12 | Step 2835397 / 1000000001 | TPS 21799.5 | ETA 12:42:22
Time 00:02:22 | Step 3054402 / 1000000001 | TPS 21900.5 | ETA 12:38:41
Time 00:02:32 | Step 3271868 / 1000000001 | TPS 21746.5 | ETA 12:43:53
Time 00:02:42 | Step 3488601 / 1000000001 | TPS 21673.2 | ETA 12:46:19
Time 00:02:52 | Step 3706026 / 1000000001 | TPS 21742.5 | ETA 12:43:42
Time 00:03:02 | Step 3923588 / 1000000001 | TPS 21756.2 | ETA 12:43:03
Time 00:03:12 | Step 4139781 / 1000000001 | TPS 21619.1 | ETA 12:47:43
Time 00:03:22 | Step 4356101 / 1000000001 | TPS 21632 | ETA 12:47:06
Time 00:03:32 | Step 4573410 / 1000000001 | TPS 21730.9 | ETA 12:43:26
Time 00:03:42 | Step 4789714 / 1000000001 | TPS 21630.4 | ETA 12:46:49
Time 00:03:52 | Step 5006130 / 1000000001 | TPS 21641.6 | ETA 12:46:16
Time 00:04:02 | Step 5223105 / 1000000001 | TPS 21697.4 | ETA 12:44:07
Time 00:04:12 | Step 5440330 / 1000000001 | TPS 21722.5 | ETA 12:43:04
Time 00:04:22 | Step 5657140 / 1000000001 | TPS 21680.9 | ETA 12:44:22
Time 00:04:32 | Step 5875008 / 1000000001 | TPS 21786.8 | ETA 12:40:29
Time 00:04:42 | Step 6091374 / 1000000001 | TPS 21636.6 | ETA 12:45:36
Time 00:04:52 | Step 6307469 / 1000000001 | TPS 21609.5 | ETA 12:46:24
Time 00:05:02 | Step 6524648 / 1000000001 | TPS 21717.9 | ETA 12:42:24
Time 00:05:12 | Step 6740328 / 1000000001 | TPS 21567.9 | ETA 12:47:32
Time 00:05:22 | Step 6957601 / 1000000001 | TPS 21727.1 | ETA 12:41:45
Time 00:05:32 | Step 7174621 / 1000000001 | TPS 21702 | ETA 12:42:28
Time 00:05:42 | Step 7392478 / 1000000001 | TPS 21785.7 | ETA 12:39:22
Time 00:05:52 | Step 7608330 / 1000000001 | TPS 21585.1 | ETA 12:46:15
Time 00:06:02 | Step 7825651 / 1000000001 | TPS 21732 | ETA 12:40:55
Time 00:06:12 | Step 8042367 / 1000000001 | TPS 21671.5 | ETA 12:42:52
Time 00:06:22 | Step 8258642 / 1000000001 | TPS 21627.5 | ETA 12:44:15
Time 00:06:32 | Step 8475596 / 1000000001 | TPS 21695.3 | ETA 12:41:42
Time 00:06:42 | Step 8692935 / 1000000001 | TPS 21733.9 | ETA 12:40:11
Time 00:06:52 | Step 8910225 / 1000000001 | TPS 21729 | ETA 12:40:11
Time 00:07:02 | Step 9127480 / 1000000001 | TPS 21725.4 | ETA 12:40:08
Time 00:07:12 | Step 9343340 / 1000000001 | TPS 21586 | ETA 12:44:53
Time 00:07:22 | Step 9560539 / 1000000001 | TPS 21719.8 | ETA 12:40:00
Time 00:07:32 | Step 9777437 / 1000000001 | TPS 21689.7 | ETA 12:40:54
Time 00:07:42 | Step 9993301 / 1000000001 | TPS 21586.3 | ETA 12:44:22
Time 00:07:52 | Step 10208523 / 1000000001 | TPS 21522 | ETA 12:46:29
Time 00:08:02 | Step 10424350 / 1000000001 | TPS 21582.6 | ETA 12:44:10
Time 00:08:12 | Step 10641996 / 1000000001 | TPS 21764.6 | ETA 12:37:37
Time 00:08:22 | Step 10858509 / 1000000001 | TPS 21651.2 | ETA 12:41:25
Time 00:08:32 | Step 11076068 / 1000000001 | TPS 21755.9 | ETA 12:37:35
Time 00:08:42 | Step 11293115 / 1000000001 | TPS 21704.7 | ETA 12:39:12
Time 00:08:52 | Step 11510738 / 1000000001 | TPS 21762.2 | ETA 12:37:02
Time 00:09:02 | Step 11727648 / 1000000001 | TPS 21691 | ETA 12:39:21
Time 00:09:12 | Step 11943940 / 1000000001 | TPS 21629.2 | ETA 12:41:21
Time 00:09:22 | Step 12161196 / 1000000001 | TPS 21725.6 | ETA 12:37:48
Time 00:09:32 | Step 12378065 / 1000000001 | TPS 21686.9 | ETA 12:39:00
Time 00:09:42 | Step 12595594 / 1000000001 | TPS 21752.8 | ETA 12:36:31
Time 00:09:52 | Step 12812757 / 1000000001 | TPS 21716.3 | ETA 12:37:38
Time 00:10:02 | Step 13029626 / 1000000001 | TPS 21686.8 | ETA 12:38:30
Time 00:10:12 | Step 13246857 / 1000000001 | TPS 21723 | ETA 12:37:04
Time 00:10:22 | Step 13462397 / 1000000001 | TPS 21553.9 | ETA 12:42:50
Time 00:10:32 | Step 13679442 / 1000000001 | TPS 21704.5 | ETA 12:37:23
Time 00:10:42 | Step 13896941 / 1000000001 | TPS 21749.8 | ETA 12:35:38
Time 00:10:52 | Step 14114062 / 1000000001 | TPS 21712.1 | ETA 12:36:47
Time 00:11:02 | Step 14328685 / 1000000001 | TPS 21462.3 | ETA 12:45:25
Time 00:11:12 | Step 14543842 / 1000000001 | TPS 21515.7 | ETA 12:43:21
Time 00:11:22 | Step 14755986 / 1000000001 | TPS 21214.3 | ETA 12:54:02
Time 00:11:32 | Step 14971545 / 1000000001 | TPS 21555.8 | ETA 12:41:36
Time 00:11:42 | Step 15187135 / 1000000001 | TPS 21559 | ETA 12:41:19
Time 00:11:52 | Step 15402614 / 1000000001 | TPS 21547.9 | ETA 12:41:33
Time 00:12:02 | Step 15619237 / 1000000001 | TPS 21662.2 | ETA 12:37:22
Time 00:12:12 | Step 15836538 / 1000000001 | TPS 21730 | ETA 12:34:50
Time 00:12:22 | Step 16053617 / 1000000001 | TPS 21707.9 | ETA 12:35:26
Time 00:12:32 | Step 16270227 / 1000000001 | TPS 21661 | ETA 12:36:54
Time 00:12:42 | Step 16487170 / 1000000001 | TPS 21694.3 | ETA 12:35:35
Time 00:12:52 | Step 16704419 / 1000000001 | TPS 21724.8 | ETA 12:34:21
Time 00:13:02 | Step 16921089 / 1000000001 | TPS 21666.9 | ETA 12:36:12
Time 00:13:12 | Step 17136725 / 1000000001 | TPS 21563.6 | ETA 12:39:39
Time 00:13:22 | Step 17353577 / 1000000001 | TPS 21685.1 | ETA 12:35:14
Time 00:13:32 | Step 17570281 / 1000000001 | TPS 21670.4 | ETA 12:35:35
Time 00:13:42 | Step 17787625 / 1000000001 | TPS 21734.4 | ETA 12:33:11
Time 00:13:52 | Step 18003394 / 1000000001 | TPS 21576.8 | ETA 12:38:31
Time 00:14:02 | Step 18219677 / 1000000001 | TPS 21628.2 | ETA 12:36:33
Time 00:14:12 | Step 18436260 / 1000000001 | TPS 21658.2 | ETA 12:35:20
Time 00:14:22 | Step 18651691 / 1000000001 | TPS 21543 | ETA 12:39:13
Time 00:14:32 | Step 18861699 / 1000000001 | TPS 21000.8 | ETA 12:58:39
Time 00:14:42 | Step 19067649 / 1000000001 | TPS 20595 | ETA 13:13:49
Time 00:14:52 | Step 19282551 / 1000000001 | TPS 21490.1 | ETA 12:40:35
Time 00:15:02 | Step 19496704 / 1000000001 | TPS 21415.3 | ETA 12:43:05
Time 00:15:12 | Step 19712101 / 1000000001 | TPS 21539.5 | ETA 12:38:31
Time 00:15:22 | Step 19927346 / 1000000001 | TPS 21524.4 | ETA 12:38:53
Time 00:15:32 | Step 20143910 / 1000000001 | TPS 21656.3 | ETA 12:34:05
Time 00:15:42 | Step 20360173 / 1000000001 | TPS 21626.1 | ETA 12:34:58
Time 00:15:52 | Step 20575126 / 1000000001 | TPS 21495.3 | ETA 12:39:24
Time 00:16:02 | Step 20788167 / 1000000001 | TPS 21304.1 | ETA 12:46:03
Time 00:16:12 | Step 21001540 / 1000000001 | TPS 21337.2 | ETA 12:44:42
Time 00:16:22 | Step 21210357 / 1000000001 | TPS 20881.5 | ETA 13:01:13
Time 00:16:32 | Step 21407727 / 1000000001 | TPS 19736.9 | ETA 13:46:21
Time 00:16:42 | Step 21614622 / 1000000001 | TPS 20689.5 | ETA 13:08:08
Time 00:16:52 | Step 21827343 / 1000000001 | TPS 21272 | ETA 12:46:23
Time 00:17:02 | Step 22040752 / 1000000001 | TPS 21340.9 | ETA 12:43:45
Time 00:17:12 | Step 22254873 / 1000000001 | TPS 21412 | ETA 12:41:03
Time 00:17:22 | Step 22470009 / 1000000001 | TPS 21513.4 | ETA 12:37:18
Time 00:17:32 | Step 22686790 / 1000000001 | TPS 21678.1 | ETA 12:31:22
Time 00:17:42 | Step 22901180 / 1000000001 | TPS 21439 | ETA 12:39:35
Time 00:17:52 | Step 23114617 / 1000000001 | TPS 21343.5 | ETA 12:42:49
Time 00:18:02 | Step 23328066 / 1000000001 | TPS 21344.9 | ETA 12:42:36
Time 00:18:12 | Step 23542079 / 1000000001 | TPS 21401.2 | ETA 12:40:26
Time 00:18:22 | Step 23754138 / 1000000001 | TPS 21205.9 | ETA 12:47:16
Time 00:18:32 | Step 23966534 / 1000000001 | TPS 21239.5 | ETA 12:45:53
Time 00:18:42 | Step 24178804 / 1000000001 | TPS 21227 | ETA 12:46:10
Time 00:18:52 | Step 24389520 / 1000000001 | TPS 21071.6 | ETA 12:51:39
Time 00:19:02 | Step 24599913 / 1000000001 | TPS 21039.2 | ETA 12:52:41
Time 00:19:12 | Step 24813335 / 1000000001 | TPS 21342.2 | ETA 12:41:32
Time 00:19:22 | Step 25023410 / 1000000001 | TPS 21007.4 | ETA 12:53:31
Time 00:19:32 | Step 25232605 / 1000000001 | TPS 20919.5 | ETA 12:56:36
Time 00:19:42 | Step 25442537 / 1000000001 | TPS 20993.2 | ETA 12:53:42
Time 00:19:52 | Step 25654949 / 1000000001 | TPS 21241.2 | ETA 12:44:30
Time 00:20:02 | Step 25857364 / 1000000001 | TPS 20241.5 | ETA 13:22:06
Time 00:20:12 | Step 26056453 / 1000000001 | TPS 19908.8 | ETA 13:35:20
Time 00:20:22 | Step 26249614 / 1000000001 | TPS 19316 | ETA 14:00:11
Time 00:20:32 | Step 26453797 / 1000000001 | TPS 20418.2 | ETA 13:14:40
Time 00:20:42 | Step 26648545 / 1000000001 | TPS 19474.8 | ETA 13:53:00
Time 00:20:52 | Step 26847379 / 1000000001 | TPS 19883.4 | ETA 13:35:43
Time 00:21:02 | Step 27056048 / 1000000001 | TPS 20866.8 | ETA 12:57:06
Time 00:21:12 | Step 27264883 / 1000000001 | TPS 20883.5 | ETA 12:56:19
Time 00:21:22 | Step 27466271 / 1000000001 | TPS 20138.7 | ETA 13:24:51
Time 00:21:32 | Step 27672531 / 1000000001 | TPS 20626 | ETA 13:05:40
Time 00:21:42 | Step 27871519 / 1000000001 | TPS 19898.7 | ETA 13:34:13
Time 00:21:52 | Step 28061129 / 1000000001 | TPS 18960.9 | ETA 14:14:20
Time 00:22:02 | Step 28246510 / 1000000001 | TPS 18537.9 | ETA 14:33:39
Time 00:22:12 | Step 28432535 / 1000000001 | TPS 18602.4 | ETA 14:30:27
Time 00:22:22 | Step 28620544 / 1000000001 | TPS 18800.8 | ETA 14:21:06
Time 00:22:32 | Step 28810931 / 1000000001 | TPS 19038.7 | ETA 14:10:11
Time 00:22:42 | Step 29000001 / 1000000001 | TPS 18905.1 | ETA 14:16:01
Time 00:22:52 | Step 29189332 / 1000000001 | TPS 18933 | ETA 14:14:36
Time 00:23:02 | Step 29377569 / 1000000001 | TPS 18823.7 | ETA 14:19:23
Time 00:23:12 | Step 29567307 / 1000000001 | TPS 18973.7 | ETA 14:12:26
Time 00:23:22 | Step 29753159 / 1000000001 | TPS 18585.1 | ETA 14:30:05
Time 00:23:32 | Step 29939940 / 1000000001 | TPS 18678 | ETA 14:25:35
Time 00:23:42 | Step 30124592 / 1000000001 | TPS 18465.1 | ETA 14:35:24
Time 00:23:52 | Step 30313665 / 1000000001 | TPS 18907.3 | ETA 14:14:46
Time 00:24:02 | Step 30499850 / 1000000001 | TPS 18618.5 | ETA 14:27:51
Time 00:24:12 | Step 30689006 / 1000000001 | TPS 18915.5 | ETA 14:14:04
Time 00:24:22 | Step 30876285 / 1000000001 | TPS 18727.8 | ETA 14:22:27
Time 00:24:32 | Step 31062073 / 1000000001 | TPS 18578.7 | ETA 14:29:13
Time 00:24:42 | Step 31248508 / 1000000001 | TPS 18643.4 | ETA 14:26:02
Time 00:24:52 | Step 31433059 / 1000000001 | TPS 18455.1 | ETA 14:34:42
Time 00:25:02 | Step 31618616 / 1000000001 | TPS 18555.7 | ETA 14:29:47
Time 00:25:12 | Step 31807562 / 1000000001 | TPS 18894.5 | ETA 14:14:01
Time 00:25:22 | Step 31993386 / 1000000001 | TPS 18582.4 | ETA 14:28:12
Time 00:25:32 | Step 32184036 / 1000000001 | TPS 19065 | ETA 14:06:04
Time 00:25:42 | Step 32369260 / 1000000001 | TPS 18522.2 | ETA 14:30:41
Time 00:25:52 | Step 32556324 / 1000000001 | TPS 18706.4 | ETA 14:21:57
Time 00:26:02 | Step 32746160 / 1000000001 | TPS 18983.5 | ETA 14:09:12
Time 00:26:12 | Step 32936053 / 1000000001 | TPS 18989.1 | ETA 14:08:47
Time 00:26:22 | Step 33133000 / 1000000001 | TPS 19694.5 | ETA 13:38:13
Time 00:26:32 | Step 33322724 / 1000000001 | TPS 18972.4 | ETA 14:09:11
Time 00:26:42 | Step 33517723 / 1000000001 | TPS 19499.8 | ETA 13:46:03
Time 00:26:52 | Step 33713496 / 1000000001 | TPS 19577.2 | ETA 13:42:37
Time 00:27:02 | Step 33904837 / 1000000001 | TPS 19134 | ETA 14:01:30
Time 00:27:12 | Step 34093973 / 1000000001 | TPS 18913.5 | ETA 14:11:09
Time 00:27:22 | Step 34286585 / 1000000001 | TPS 19261.2 | ETA 13:55:37
Time 00:27:32 | Step 34487280 / 1000000001 | TPS 20069.5 | ETA 13:21:48
Time 00:27:42 | Step 34682360 / 1000000001 | TPS 19508 | ETA 13:44:43
Time 00:27:52 | Step 34874463 / 1000000001 | TPS 19210.2 | ETA 13:57:20
Time 00:28:02 | Step 35059156 / 1000000001 | TPS 18469.3 | ETA 14:30:45
Time 00:28:12 | Step 35247750 / 1000000001 | TPS 18859.4 | ETA 14:12:35
Time 00:28:22 | Step 35433375 / 1000000001 | TPS 18562.4 | ETA 14:26:03
Time 00:28:32 | Step 35623845 / 1000000001 | TPS 19047 | ETA 14:03:51
Time 00:28:42 | Step 35814038 / 1000000001 | TPS 19019.3 | ETA 14:04:55
Time 00:28:52 | Step 35999313 / 1000000001 | TPS 18527.4 | ETA 14:27:11
Time 00:29:02 | Step 36185632 / 1000000001 | TPS 18631.9 | ETA 14:22:09
Time 00:29:12 | Step 36369595 / 1000000001 | TPS 18396.3 | ETA 14:33:01
Time 00:29:22 | Step 36554407 / 1000000001 | TPS 18481.2 | ETA 14:28:51
Time 00:29:32 | Step 36739190 / 1000000001 | TPS 18478.3 | ETA 14:28:49
Time 00:29:42 | Step 36928007 / 1000000001 | TPS 18881.7 | ETA 14:10:05
Time 00:29:52 | Step 37118563 / 1000000001 | TPS 19055.5 | ETA 14:02:10
Time 00:30:02 | Step 37303555 / 1000000001 | TPS 18499.2 | ETA 14:27:20
Time 00:30:12 | Step 37488217 / 1000000001 | TPS 18466.2 | ETA 14:28:42
Time 00:30:22 | Step 37673645 / 1000000001 | TPS 18542.7 | ETA 14:24:57
Time 00:30:32 | Step 37862690 / 1000000001 | TPS 18904.4 | ETA 14:08:14
Time 00:30:42 | Step 38052537 / 1000000001 | TPS 18984.7 | ETA 14:04:29
Time 00:30:52 | Step 38241437 / 1000000001 | TPS 18890 | ETA 14:08:33
Time 00:31:02 | Step 38431559 / 1000000001 | TPS 19012.1 | ETA 14:02:56
Time 00:31:12 | Step 38617389 / 1000000001 | TPS 18583 | ETA 14:22:14
Time 00:31:22 | Step 38808017 / 1000000001 | TPS 19062.8 | ETA 14:00:22
Time 00:31:32 | Step 38999029 / 1000000001 | TPS 19101 | ETA 13:58:31
Time 00:31:42 | Step 39190328 / 1000000001 | TPS 19129.9 | ETA 13:57:05
Time 00:31:52 | Step 39394702 / 1000000001 | TPS 20437.3 | ETA 13:03:22
Time 00:32:02 | Step 39598712 / 1000000001 | TPS 20401 | ETA 13:04:36
Time 00:32:12 | Step 39795069 / 1000000001 | TPS 19635.6 | ETA 13:35:01
Time 00:32:22 | Step 39981941 / 1000000001 | TPS 18687.2 | ETA 14:16:13
Time 00:32:32 | Step 40170638 / 1000000001 | TPS 18869.6 | ETA 14:07:46
Time 00:32:42 | Step 40355000 / 1000000001 | TPS 18436.2 | ETA 14:27:32
Time 00:32:52 | Step 40539381 / 1000000001 | TPS 18438 | ETA 14:27:17
Time 00:33:02 | Step 40723497 / 1000000001 | TPS 18411.6 | ETA 14:28:21
Time 00:33:12 | Step 40909221 / 1000000001 | TPS 18572.3 | ETA 14:20:40
Time 00:33:22 | Step 41094111 / 1000000001 | TPS 18488.9 | ETA 14:24:23
Time 00:33:32 | Step 41279394 / 1000000001 | TPS 18528.2 | ETA 14:22:23
Time 00:33:42 | Step 41465350 / 1000000001 | TPS 18595.5 | ETA 14:19:06
Time 00:33:52 | Step 41650817 / 1000000001 | TPS 18546.7 | ETA 14:21:12
Time 00:34:02 | Step 41835785 / 1000000001 | TPS 18496.7 | ETA 14:23:22
Time 00:34:12 | Step 42021711 / 1000000001 | TPS 18592.6 | ETA 14:18:44
Time 00:34:22 | Step 42213485 / 1000000001 | TPS 19177.3 | ETA 13:52:23
Time 00:34:32 | Step 42399138 / 1000000001 | TPS 18565.2 | ETA 14:19:40
Time 00:34:42 | Step 42584749 / 1000000001 | TPS 18561.1 | ETA 14:19:41
Time 00:34:52 | Step 42771069 / 1000000001 | TPS 18631.9 | ETA 14:16:15
Time 00:35:02 | Step 42960638 / 1000000001 | TPS 18956.8 | ETA 14:01:25
Time 00:35:12 | Step 43148854 / 1000000001 | TPS 18821.6 | ETA 14:07:17
Time 00:35:22 | Step 43337099 / 1000000001 | TPS 18824.5 | ETA 14:07:00
Time 00:35:32 | Step 43522542 / 1000000001 | TPS 18544.3 | ETA 14:19:38
Time 00:35:42 | Step 43707769 / 1000000001 | TPS 18522.6 | ETA 14:20:28
Time 00:35:52 | Step 43895502 / 1000000001 | TPS 18773.3 | ETA 14:08:49
Time 00:36:02 | Step 44082352 / 1000000001 | TPS 18684.9 | ETA 14:12:39
Time 00:36:12 | Step 44270197 / 1000000001 | TPS 18784.4 | ETA 14:07:59
Time 00:36:22 | Step 44456329 / 1000000001 | TPS 18613.2 | ETA 14:15:37
Time 00:36:32 | Step 44640660 / 1000000001 | TPS 18433.1 | ETA 14:23:48
Time 00:36:42 | Step 44826530 / 1000000001 | TPS 18587 | ETA 14:16:29
Time 00:36:52 | Step 45012961 / 1000000001 | TPS 18643.1 | ETA 14:13:44
Time 00:37:02 | Step 45200333 / 1000000001 | TPS 18737.2 | ETA 14:09:17
Time 00:37:12 | Step 45388280 / 1000000001 | TPS 18794.6 | ETA 14:06:31
Time 00:37:22 | Step 45576239 / 1000000001 | TPS 18795.9 | ETA 14:06:18
Time 00:37:32 | Step 45761753 / 1000000001 | TPS 18551.4 | ETA 14:17:17
Time 00:37:42 | Step 45945509 / 1000000001 | TPS 18375.5 | ETA 14:25:19
Time 00:37:52 | Step 46130800 / 1000000001 | TPS 18529.1 | ETA 14:17:59
Time 00:38:02 | Step 46317507 / 1000000001 | TPS 18670.7 | ETA 14:11:19
Time 00:38:12 | Step 46502801 / 1000000001 | TPS 18529.3 | ETA 14:17:38
Time 00:38:22 | Step 46689061 / 1000000001 | TPS 18625.9 | ETA 14:13:01
Time 00:38:32 | Step 46876581 / 1000000001 | TPS 18751.9 | ETA 14:07:08
Time 00:38:42 | Step 47063970 / 1000000001 | TPS 18738.8 | ETA 14:07:33
Time 00:38:52 | Step 47251882 / 1000000001 | TPS 18791.2 | ETA 14:05:01
Time 00:39:02 | Step 47439507 / 1000000001 | TPS 18762.5 | ETA 14:06:09
Time 00:39:12 | Step 47626415 / 1000000001 | TPS 18690.8 | ETA 14:09:14
Time 00:39:22 | Step 47813249 / 1000000001 | TPS 18683.4 | ETA 14:09:24
Time 00:39:32 | Step 47998672 / 1000000001 | TPS 18542.2 | ETA 14:15:42
Time 00:39:42 | Step 48183741 / 1000000001 | TPS 18506.8 | ETA 14:17:10
Time 00:39:52 | Step 48368275 / 1000000001 | TPS 18453.4 | ETA 14:19:29
Time 00:40:02 | Step 48552938 / 1000000001 | TPS 18466.3 | ETA 14:18:43
Time 00:40:12 | Step 48738085 / 1000000001 | TPS 18514.7 | ETA 14:16:18
Time 00:40:22 | Step 48922486 / 1000000001 | TPS 18440.1 | ETA 14:19:36
Time 00:40:32 | Step 49107483 / 1000000001 | TPS 18499.7 | ETA 14:16:40
Time 00:40:42 | Step 49291732 / 1000000001 | TPS 18424.8 | ETA 14:19:59
Time 00:40:52 | Step 49476394 / 1000000001 | TPS 18466.1 | ETA 14:17:53
Time 00:41:02 | Step 49661754 / 1000000001 | TPS 18536 | ETA 14:14:29
Time 00:41:12 | Step 49847634 / 1000000001 | TPS 18588 | ETA 14:11:56
Time 00:41:22 | Step 50032607 / 1000000001 | TPS 18497.2 | ETA 14:15:57
Time 00:41:32 | Step 50217294 / 1000000001 | TPS 18468.7 | ETA 14:17:06
Time 00:41:42 | Step 50401652 / 1000000001 | TPS 18435.7 | ETA 14:18:28
Time 00:41:52 | Step 50586426 / 1000000001 | TPS 18477.3 | ETA 14:16:22
Time 00:42:02 | Step 50770821 / 1000000001 | TPS 18439.4 | ETA 14:17:58
Time 00:42:12 | Step 50956817 / 1000000001 | TPS 18599.4 | ETA 14:10:25
Time 00:42:22 | Step 51140419 / 1000000001 | TPS 18360.2 | ETA 14:21:20
Time 00:42:32 | Step 51325313 / 1000000001 | TPS 18489.3 | ETA 14:15:09
Time 00:42:42 | Step 51510036 / 1000000001 | TPS 18472.3 | ETA 14:15:46
Time 00:42:52 | Step 51694299 / 1000000001 | TPS 18426.3 | ETA 14:17:44
Time 00:43:02 | Step 51878697 / 1000000001 | TPS 18439.6 | ETA 14:16:57
Time 00:43:12 | Step 52063368 / 1000000001 | TPS 18467.1 | ETA 14:15:31
Time 00:43:22 | Step 52248540 / 1000000001 | TPS 18517.2 | ETA 14:13:02
Time 00:43:32 | Step 52433969 / 1000000001 | TPS 18542.9 | ETA 14:11:41
Time 00:43:42 | Step 52618334 / 1000000001 | TPS 18436.4 | ETA 14:16:26
Time 00:43:52 | Step 52802310 / 1000000001 | TPS 18397.5 | ETA 14:18:04
Time 00:44:02 | Step 52986640 / 1000000001 | TPS 18432.9 | ETA 14:16:16
Time 00:44:12 | Step 53171274 / 1000000001 | TPS 18463.3 | ETA 14:14:41
Time 00:44:22 | Step 53355691 / 1000000001 | TPS 18441.6 | ETA 14:15:32
Time 00:44:32 | Step 53539436 / 1000000001 | TPS 18374.3 | ETA 14:18:29
Time 00:44:42 | Step 53724027 / 1000000001 | TPS 18459.1 | ETA 14:14:23
Time 00:44:52 | Step 53908002 / 1000000001 | TPS 18397.5 | ETA 14:17:05
Time 00:45:02 | Step 54093933 / 1000000001 | TPS 18593.1 | ETA 14:07:54
Time 00:45:12 | Step 54278701 / 1000000001 | TPS 18476.5 | ETA 14:13:05
Time 00:45:22 | Step 54462302 / 1000000001 | TPS 18360.1 | ETA 14:18:19
Time 00:45:32 | Step 54645699 / 1000000001 | TPS 18339.6 | ETA 14:19:07
Time 00:45:42 | Step 54830082 / 1000000001 | TPS 18438.2 | ETA 14:14:21
Time 00:45:52 | Step 55015416 / 1000000001 | TPS 18533.4 | ETA 14:09:48
Time 00:46:02 | Step 55199699 / 1000000001 | TPS 18428.3 | ETA 14:14:29
Time 00:46:12 | Step 55384392 / 1000000001 | TPS 18469.3 | ETA 14:12:25
Time 00:46:22 | Step 55568261 / 1000000001 | TPS 18386.9 | ETA 14:16:04
Time 00:46:32 | Step 55752778 / 1000000001 | TPS 18451.7 | ETA 14:12:54
Time 00:46:42 | Step 55937275 / 1000000001 | TPS 18449.6 | ETA 14:12:49
Time 00:46:52 | Step 56120320 / 1000000001 | TPS 18304.5 | ETA 14:19:25
Time 00:47:02 | Step 56305117 / 1000000001 | TPS 18479.6 | ETA 14:11:06
Time 00:47:12 | Step 56490001 / 1000000001 | TPS 18488.1 | ETA 14:10:33
Time 00:47:22 | Step 56675205 / 1000000001 | TPS 18520.3 | ETA 14:08:54
Time 00:47:32 | Step 56859849 / 1000000001 | TPS 18464.3 | ETA 14:11:19
Time 00:47:42 | Step 57043613 / 1000000001 | TPS 18376.3 | ETA 14:15:13
Time 00:47:52 | Step 57228069 / 1000000001 | TPS 18445.6 | ETA 14:11:51
Time 00:48:02 | Step 57411721 / 1000000001 | TPS 18365.1 | ETA 14:15:24
Time 00:48:12 | Step 57595033 / 1000000001 | TPS 18331.2 | ETA 14:16:49
Time 00:48:22 | Step 57778307 / 1000000001 | TPS 18327.2 | ETA 14:16:51
Time 00:48:32 | Step 57962044 / 1000000001 | TPS 18373.6 | ETA 14:14:31
Time 00:48:42 | Step 58146019 / 1000000001 | TPS 18397.4 | ETA 14:13:14
Time 00:48:52 | Step 58330477 / 1000000001 | TPS 18445.6 | ETA 14:10:51
Time 00:49:02 | Step 58514577 / 1000000001 | TPS 18409.9 | ETA 14:12:20
Time 00:49:12 | Step 58697550 / 1000000001 | TPS 18297.2 | ETA 14:17:25
Time 00:49:22 | Step 58880768 / 1000000001 | TPS 18321.7 | ETA 14:16:06
Time 00:49:32 | Step 59064299 / 1000000001 | TPS 18352.9 | ETA 14:14:29
Time 00:49:42 | Step 59247615 / 1000000001 | TPS 18331.5 | ETA 14:15:18
Time 00:49:52 | Step 59431034 / 1000000001 | TPS 18341.8 | ETA 14:14:40
Time 00:50:02 | Step 59614915 / 1000000001 | TPS 18388 | ETA 14:12:21
Time 00:50:12 | Step 59797575 / 1000000001 | TPS 18265.9 | ETA 14:17:53
Time 00:50:22 | Step 59981927 / 1000000001 | TPS 18435.1 | ETA 14:09:50
Time 00:50:32 | Step 60165487 / 1000000001 | TPS 18355.8 | ETA 14:13:20
Time 00:50:42 | Step 60349191 / 1000000001 | TPS 18370.4 | ETA 14:12:30
Time 00:50:52 | Step 60532142 / 1000000001 | TPS 18295 | ETA 14:15:51
Time 00:51:02 | Step 60715014 / 1000000001 | TPS 18287.1 | ETA 14:16:03
Time 00:51:12 | Step 60899397 / 1000000001 | TPS 18438.1 | ETA 14:08:52
Time 00:51:22 | Step 61082335 / 1000000001 | TPS 18293.8 | ETA 14:15:24
Time 00:51:32 | Step 61266062 / 1000000001 | TPS 18372.6 | ETA 14:11:34
Time 00:51:42 | Step 61449628 / 1000000001 | TPS 18356.6 | ETA 14:12:08
Time 00:51:52 | Step 61632105 / 1000000001 | TPS 18247.6 | ETA 14:17:04
Time 00:52:02 | Step 61816123 / 1000000001 | TPS 18401.8 | ETA 14:09:43
Time 00:52:12 | Step 61999337 / 1000000001 | TPS 18321.3 | ETA 14:13:17
Time 00:52:22 | Step 62182463 / 1000000001 | TPS 18312.5 | ETA 14:13:31
Time 00:52:32 | Step 62366765 / 1000000001 | TPS 18430.2 | ETA 14:07:54
Time 00:52:42 | Step 62550855 / 1000000001 | TPS 18409 | ETA 14:08:43
Time 00:52:52 | Step 62735289 / 1000000001 | TPS 18443.4 | ETA 14:06:58
Time 00:53:02 | Step 62918797 / 1000000001 | TPS 18350.8 | ETA 14:11:04
Time 00:53:12 | Step 63101446 / 1000000001 | TPS 18264.9 | ETA 14:14:55
Time 00:53:22 | Step 63284741 / 1000000001 | TPS 18329.5 | ETA 14:11:44
Time 00:53:32 | Step 63467855 / 1000000001 | TPS 18311.3 | ETA 14:12:24
Time 00:53:42 | Step 63651118 / 1000000001 | TPS 18326.3 | ETA 14:11:33
Time 00:53:52 | Step 63835267 / 1000000001 | TPS 18414.8 | ETA 14:07:17
Time 00:54:02 | Step 64019293 / 1000000001 | TPS 18402.5 | ETA 14:07:41
Time 00:54:12 | Step 64202162 / 1000000001 | TPS 18286.8 | ETA 14:12:53
Time 00:54:22 | Step 64387039 / 1000000001 | TPS 18487.7 | ETA 14:03:27
Time 00:54:32 | Step 64571307 / 1000000001 | TPS 18426.8 | ETA 14:06:04
Time 00:54:42 | Step 64755201 / 1000000001 | TPS 18389.4 | ETA 14:07:37
Time 00:54:52 | Step 64938576 / 1000000001 | TPS 18337.4 | ETA 14:09:52
Time 00:55:02 | Step 65122432 / 1000000001 | TPS 18385.6 | ETA 14:07:28
Time 00:55:12 | Step 65306386 / 1000000001 | TPS 18395.4 | ETA 14:06:51
Time 00:55:22 | Step 65490856 / 1000000001 | TPS 18447 | ETA 14:04:19
Time 00:55:32 | Step 65673858 / 1000000001 | TPS 18300.2 | ETA 14:10:55
Time 00:55:42 | Step 65857700 / 1000000001 | TPS 18384.1 | ETA 14:06:52
Time 00:55:52 | Step 66041034 / 1000000001 | TPS 18333.3 | ETA 14:09:03
Time 00:56:02 | Step 66224818 / 1000000001 | TPS 18378.4 | ETA 14:06:48
Time 00:56:12 | Step 66409107 / 1000000001 | TPS 18428.9 | ETA 14:04:19
Time 00:56:22 | Step 66593125 / 1000000001 | TPS 18401.7 | ETA 14:05:23
Time 00:56:32 | Step 66777498 / 1000000001 | TPS 18437.2 | ETA 14:03:36
Time 00:56:42 | Step 66962442 / 1000000001 | TPS 18494.3 | ETA 14:00:49
Time 00:56:52 | Step 67146374 / 1000000001 | TPS 18393.2 | ETA 14:05:17
Time 00:57:02 | Step 67329765 / 1000000001 | TPS 18339.1 | ETA 14:07:37
Time 00:57:12 | Step 67512218 / 1000000001 | TPS 18245.1 | ETA 14:11:48
Time 00:57:22 | Step 67694815 / 1000000001 | TPS 18259.6 | ETA 14:10:58
Time 00:57:32 | Step 67878434 / 1000000001 | TPS 18361.9 | ETA 14:06:03
Time 00:57:42 | Step 68061883 / 1000000001 | TPS 18344.9 | ETA 14:06:40
Time 00:57:52 | Step 68245441 / 1000000001 | TPS 18355.7 | ETA 14:06:00
Time 00:58:02 | Step 68429122 / 1000000001 | TPS 18368.1 | ETA 14:05:16
Time 00:58:12 | Step 68613539 / 1000000001 | TPS 18441.6 | ETA 14:01:44
Time 00:58:22 | Step 68797456 / 1000000001 | TPS 18391.7 | ETA 14:03:51
Time 00:58:32 | Step 68980581 / 1000000001 | TPS 18312.3 | ETA 14:07:21
Time 00:58:42 | Step 69163880 / 1000000001 | TPS 18329.9 | ETA 14:06:22
Time 00:58:52 | Step 69347043 / 1000000001 | TPS 18316.3 | ETA 14:06:50
Time 00:59:02 | Step 69530552 / 1000000001 | TPS 18350.9 | ETA 14:05:04
Time 00:59:12 | Step 69713864 / 1000000001 | TPS 18331 | ETA 14:05:49
Time 00:59:22 | Step 69897324 / 1000000001 | TPS 18345.9 | ETA 14:04:58
Time 00:59:32 | Step 70080334 / 1000000001 | TPS 18301 | ETA 14:06:52
Time 00:59:42 | Step 70263627 / 1000000001 | TPS 18329.2 | ETA 14:05:24
Time 00:59:52 | Step 70447546 / 1000000001 | TPS 18391.9 | ETA 14:02:21
Time 01:00:02 | Step 70631461 / 1000000001 | TPS 18391.5 | ETA 14:02:12
Time 01:00:12 | Step 70814882 / 1000000001 | TPS 18342.1 | ETA 14:04:18
Time 01:00:22 | Step 70998010 / 1000000001 | TPS 18312.8 | ETA 14:05:29
Time 01:00:32 | Step 71181717 / 1000000001 | TPS 18370.7 | ETA 14:02:39
Time 01:00:42 | Step 71364940 / 1000000001 | TPS 18322.3 | ETA 14:04:43
Time 01:00:52 | Step 71548599 / 1000000001 | TPS 18365.8 | ETA 14:02:33
Time 01:01:02 | Step 71732329 / 1000000001 | TPS 18372.9 | ETA 14:02:03
Time 01:01:12 | Step 71916261 / 1000000001 | TPS 18393.2 | ETA 14:00:58
Time 01:01:22 | Step 72099126 / 1000000001 | TPS 18286.5 | ETA 14:05:42
Time 01:01:32 | Step 72281733 / 1000000001 | TPS 18260.5 | ETA 14:06:44
Time 01:01:42 | Step 72464197 / 1000000001 | TPS 18246.2 | ETA 14:07:14
Time 01:01:52 | Step 72647777 / 1000000001 | TPS 18357.9 | ETA 14:01:55
Time 01:02:02 | Step 72831004 / 1000000001 | TPS 18322.6 | ETA 14:03:22
Time 01:02:12 | Step 73014248 / 1000000001 | TPS 18324.2 | ETA 14:03:08
Time 01:02:22 | Step 73198174 / 1000000001 | TPS 18392.5 | ETA 13:59:50
Time 01:02:32 | Step 73381138 / 1000000001 | TPS 18296.2 | ETA 14:04:05
Time 01:02:42 | Step 73564389 / 1000000001 | TPS 18325 | ETA 14:02:35
Time 01:02:52 | Step 73748184 / 1000000001 | TPS 18379.5 | ETA 13:59:55
Time 01:03:02 | Step 73931181 / 1000000001 | TPS 18299.7 | ETA 14:03:25
Time 01:03:12 | Step 74114730 / 1000000001 | TPS 18354.9 | ETA 14:00:43
Time 01:03:22 | Step 74298204 / 1000000001 | TPS 18347.4 | ETA 14:00:54
Time 01:03:32 | Step 74480306 / 1000000001 | TPS 18210.2 | ETA 14:07:04
Time 01:03:42 | Step 74663697 / 1000000001 | TPS 18339 | ETA 14:00:57
Time 01:03:52 | Step 74845430 / 1000000001 | TPS 18173.3 | ETA 14:08:27
Time 01:04:02 | Step 75029066 / 1000000001 | TPS 18363.6 | ETA 13:59:29
Time 01:04:12 | Step 75212019 / 1000000001 | TPS 18295.2 | ETA 14:02:27
Time 01:04:22 | Step 75395344 / 1000000001 | TPS 18332.5 | ETA 14:00:35
Time 01:04:32 | Step 75578492 / 1000000001 | TPS 18314.8 | ETA 14:01:14
Time 01:04:42 | Step 75761982 / 1000000001 | TPS 18348.9 | ETA 13:59:30
Time 01:04:52 | Step 75944908 / 1000000001 | TPS 18292.6 | ETA 14:01:55
Time 01:05:02 | Step 76128069 / 1000000001 | TPS 18316.1 | ETA 14:00:40
Time 01:05:12 | Step 76310935 / 1000000001 | TPS 18286.6 | ETA 14:01:51
Time 01:05:22 | Step 76494195 / 1000000001 | TPS 18326 | ETA 13:59:53
Time 01:05:32 | Step 76677488 / 1000000001 | TPS 18329.3 | ETA 13:59:34
Time 01:05:42 | Step 76860601 / 1000000001 | TPS 18311.1 | ETA 14:00:14
Time 01:05:52 | Step 77043420 / 1000000001 | TPS 18281.8 | ETA 14:01:24
Time 01:06:02 | Step 77226731 / 1000000001 | TPS 18331.1 | ETA 13:58:59
Time 01:06:12 | Step 77409757 / 1000000001 | TPS 18302.5 | ETA 14:00:07
Time 01:06:22 | Step 77592765 / 1000000001 | TPS 18300.7 | ETA 14:00:02
Time 01:06:32 | Step 77775761 / 1000000001 | TPS 18299.5 | ETA 13:59:56
Time 01:06:42 | Step 77959093 / 1000000001 | TPS 18333.2 | ETA 13:58:13
Time 01:06:52 | Step 78142504 / 1000000001 | TPS 18341 | ETA 13:57:42
Time 01:07:02 | Step 78324665 / 1000000001 | TPS 18216.1 | ETA 14:03:16
Time 01:07:12 | Step 78507616 / 1000000001 | TPS 18295.1 | ETA 13:59:28
Time 01:07:22 | Step 78689158 / 1000000001 | TPS 18154.2 | ETA 14:05:49
Time 01:07:32 | Step 78872297 / 1000000001 | TPS 18313.8 | ETA 13:58:16
Time 01:07:42 | Step 79055189 / 1000000001 | TPS 18289.1 | ETA 13:59:14
Time 01:07:52 | Step 79238550 / 1000000001 | TPS 18335.9 | ETA 13:56:56
Time 01:08:02 | Step 79421796 / 1000000001 | TPS 18324.5 | ETA 13:57:17
Time 01:08:12 | Step 79605143 / 1000000001 | TPS 18334.6 | ETA 13:56:39
Time 01:08:22 | Step 79788412 / 1000000001 | TPS 18326.8 | ETA 13:56:51
Time 01:08:32 | Step 79971576 / 1000000001 | TPS 18316.3 | ETA 13:57:09
Time 01:08:42 | Step 80154538 / 1000000001 | TPS 18296.2 | ETA 13:57:55
Time 01:08:52 | Step 80338186 / 1000000001 | TPS 18364.8 | ETA 13:54:37
Time 01:09:02 | Step 80521260 / 1000000001 | TPS 18307.4 | ETA 13:57:04
Time 01:09:12 | Step 80704489 / 1000000001 | TPS 18322.8 | ETA 13:56:12
Time 01:09:22 | Step 80887078 / 1000000001 | TPS 18258.9 | ETA 13:58:57
Time 01:09:32 | Step 81068565 / 1000000001 | TPS 18148.7 | ETA 14:03:53
Time 01:09:42 | Step 81250718 / 1000000001 | TPS 18215.2 | ETA 14:00:38
Time 01:09:52 | Step 81434054 / 1000000001 | TPS 18333.5 | ETA 13:55:03
Time 01:10:02 | Step 81617307 / 1000000001 | TPS 18325.3 | ETA 13:55:15
Time 01:10:12 | Step 81800524 / 1000000001 | TPS 18321.7 | ETA 13:55:15
Time 01:10:22 | Step 81984268 / 1000000001 | TPS 18374.4 | ETA 13:52:41
Time 01:10:32 | Step 82167588 / 1000000001 | TPS 18332 | ETA 13:54:27
Time 01:10:42 | Step 82349323 / 1000000001 | TPS 18173.4 | ETA 14:01:34
Time 01:10:52 | Step 82532070 / 1000000001 | TPS 18274.7 | ETA 13:56:44
Time 01:11:02 | Step 82715623 / 1000000001 | TPS 18355.3 | ETA 13:52:53
Time 01:11:12 | Step 82898206 / 1000000001 | TPS 18258.2 | ETA 13:57:09
Time 01:11:22 | Step 83080984 / 1000000001 | TPS 18277.8 | ETA 13:56:05
Time 01:11:32 | Step 83262429 / 1000000001 | TPS 18144.5 | ETA 14:02:04
Time 01:11:42 | Step 83445505 / 1000000001 | TPS 18307.6 | ETA 13:54:24
Time 01:11:52 | Step 83627157 / 1000000001 | TPS 18165.1 | ETA 14:00:46
Time 01:12:02 | Step 83809495 / 1000000001 | TPS 18233.8 | ETA 13:57:26
Time 01:12:12 | Step 83992503 / 1000000001 | TPS 18300.8 | ETA 13:54:12
Time 01:12:22 | Step 84175156 / 1000000001 | TPS 18265.2 | ETA 13:55:40
Time 01:12:32 | Step 84357522 / 1000000001 | TPS 18236.5 | ETA 13:56:49
Time 01:12:42 | Step 84540468 / 1000000001 | TPS 18294.6 | ETA 13:53:59
Time 01:12:52 | Step 84723606 / 1000000001 | TPS 18313.7 | ETA 13:52:57
Time 01:13:02 | Step 84906114 / 1000000001 | TPS 18250.8 | ETA 13:55:40
Time 01:13:12 | Step 85088181 / 1000000001 | TPS 18206.6 | ETA 13:57:31
Time 01:13:22 | Step 85270581 / 1000000001 | TPS 18240 | ETA 13:55:49
Time 01:13:32 | Step 85453018 / 1000000001 | TPS 18243.7 | ETA 13:55:29
Time 01:13:42 | Step 85635670 / 1000000001 | TPS 18265.1 | ETA 13:54:20
Time 01:13:52 | Step 85817508 / 1000000001 | TPS 18183.8 | ETA 13:57:54
Time 01:14:02 | Step 86000168 / 1000000001 | TPS 18266 | ETA 13:53:58
Time 01:14:12 | Step 86183493 / 1000000001 | TPS 18332.5 | ETA 13:50:46
Time 01:14:22 | Step 86365848 / 1000000001 | TPS 18235.4 | ETA 13:55:02
Time 01:14:32 | Step 86548210 / 1000000001 | TPS 18236.2 | ETA 13:54:50
Time 01:14:42 | Step 86730300 / 1000000001 | TPS 18208.9 | ETA 13:55:54
Time 01:14:52 | Step 86913005 / 1000000001 | TPS 18270.5 | ETA 13:52:56
Time 01:15:02 | Step 87095653 / 1000000001 | TPS 18264.8 | ETA 13:53:01
Time 01:15:12 | Step 87279285 / 1000000001 | TPS 18363.2 | ETA 13:48:23
Time 01:15:22 | Step 87460996 / 1000000001 | TPS 18171.1 | ETA 13:56:59
Time 01:15:32 | Step 87643825 / 1000000001 | TPS 18282.9 | ETA 13:51:42
Time 01:15:42 | Step 87827049 / 1000000001 | TPS 18322.3 | ETA 13:49:44
Time 01:15:52 | Step 88009012 / 1000000001 | TPS 18196.3 | ETA 13:55:19
Time 01:16:02 | Step 88191764 / 1000000001 | TPS 18275.1 | ETA 13:51:33
Time 01:16:12 | Step 88375061 / 1000000001 | TPS 18329.7 | ETA 13:48:54
Time 01:16:22 | Step 88558099 / 1000000001 | TPS 18303.7 | ETA 13:49:55
Time 01:16:32 | Step 88741516 / 1000000001 | TPS 18341.7 | ETA 13:48:02
Time 01:16:42 | Step 88924491 / 1000000001 | TPS 18297.4 | ETA 13:49:52
Time 01:16:52 | Step 89106567 / 1000000001 | TPS 18207.5 | ETA 13:53:48
Time 01:17:02 | Step 89289613 / 1000000001 | TPS 18304.6 | ETA 13:49:13
Time 01:17:12 | Step 89472665 / 1000000001 | TPS 18305.2 | ETA 13:49:01
Time 01:17:22 | Step 89655150 / 1000000001 | TPS 18248.3 | ETA 13:51:26
Time 01:17:32 | Step 89838301 / 1000000001 | TPS 18315 | ETA 13:48:14
Time 01:17:42 | Step 90021153 / 1000000001 | TPS 18285.2 | ETA 13:49:25
Time 01:17:52 | Step 90204508 / 1000000001 | TPS 18335.4 | ETA 13:46:59
Time 01:18:02 | Step 90387309 / 1000000001 | TPS 18280 | ETA 13:49:20
Time 01:18:12 | Step 90569886 / 1000000001 | TPS 18257.7 | ETA 13:50:10
Time 01:18:22 | Step 90752619 / 1000000001 | TPS 18273.1 | ETA 13:49:18
Time 01:18:32 | Step 90934684 / 1000000001 | TPS 18206.5 | ETA 13:52:10
Time 01:18:42 | Step 91117160 / 1000000001 | TPS 18247.6 | ETA 13:50:08
Time 01:18:52 | Step 91299828 / 1000000001 | TPS 18266.8 | ETA 13:49:06
Time 01:19:02 | Step 91482000 / 1000000001 | TPS 18217.1 | ETA 13:51:11
Time 01:19:12 | Step 91664147 / 1000000001 | TPS 18214.7 | ETA 13:51:08
Time 01:19:22 | Step 91846107 / 1000000001 | TPS 18196 | ETA 13:51:49
Time 01:19:32 | Step 92028962 / 1000000001 | TPS 18285.4 | ETA 13:47:35
Time 01:19:42 | Step 92211187 / 1000000001 | TPS 18222.5 | ETA 13:50:17
Time 01:19:52 | Step 92394161 / 1000000001 | TPS 18297.3 | ETA 13:46:43
Time 01:20:02 | Step 92576605 / 1000000001 | TPS 18244.4 | ETA 13:48:57
Time 01:20:12 | Step 92759097 / 1000000001 | TPS 18249.2 | ETA 13:48:34
Time 01:20:22 | Step 92941616 / 1000000001 | TPS 18251.8 | ETA 13:48:16
Time 01:20:32 | Step 93125168 / 1000000001 | TPS 18355.2 | ETA 13:43:27
Time 01:20:42 | Step 93308630 / 1000000001 | TPS 18346.1 | ETA 13:43:41
Time 01:20:52 | Step 93490951 / 1000000001 | TPS 18232 | ETA 13:48:40
Time 01:21:02 | Step 93672259 / 1000000001 | TPS 18130.7 | ETA 13:53:08
Time 01:21:12 | Step 93854781 / 1000000001 | TPS 18252.2 | ETA 13:47:25
Time 01:21:22 | Step 94037334 / 1000000001 | TPS 18255.2 | ETA 13:47:07
Time 01:21:32 | Step 94220574 / 1000000001 | TPS 18324 | ETA 13:43:51
Time 01:21:42 | Step 94403050 / 1000000001 | TPS 18247.6 | ETA 13:47:08
Time 01:21:52 | Step 94584622 / 1000000001 | TPS 18157.2 | ETA 13:51:05
Time 01:22:02 | Step 94767327 / 1000000001 | TPS 18270.5 | ETA 13:45:46
Time 01:22:12 | Step 94949157 / 1000000001 | TPS 18182.9 | ETA 13:49:34
Time 01:22:22 | Step 95131478 / 1000000001 | TPS 18232.1 | ETA 13:47:10
Time 01:22:32 | Step 95314081 / 1000000001 | TPS 18260.3 | ETA 13:45:43
Time 01:22:42 | Step 95497379 / 1000000001 | TPS 18329.8 | ETA 13:42:26
Time 01:22:52 | Step 95680924 / 1000000001 | TPS 18354.5 | ETA 13:41:09
Time 01:23:02 | Step 95864046 / 1000000001 | TPS 18312.2 | ETA 13:42:53
Time 01:23:12 | Step 96046514 / 1000000001 | TPS 18246.7 | ETA 13:45:40
Time 01:23:22 | Step 96228374 / 1000000001 | TPS 18186 | ETA 13:48:16
Time 01:23:32 | Step 96409922 / 1000000001 | TPS 18154.8 | ETA 13:49:31
Time 01:23:42 | Step 96592871 / 1000000001 | TPS 18294.9 | ETA 13:43:00
Time 01:23:52 | Step 96775378 / 1000000001 | TPS 18250.7 | ETA 13:44:49
Time 01:24:02 | Step 96958211 / 1000000001 | TPS 18283.2 | ETA 13:43:11
Time 01:24:12 | Step 97142181 / 1000000001 | TPS 18396.8 | ETA 13:37:56
Time 01:24:22 | Step 97324753 / 1000000001 | TPS 18257.2 | ETA 13:44:02
Time 01:24:32 | Step 97508080 / 1000000001 | TPS 18332.7 | ETA 13:40:28
Time 01:24:42 | Step 97691494 / 1000000001 | TPS 18341.2 | ETA 13:39:55
Time 01:24:52 | Step 97874949 / 1000000001 | TPS 18345.4 | ETA 13:39:34
Time 01:25:02 | Step 98058754 / 1000000001 | TPS 18380.5 | ETA 13:37:50
Time 01:25:12 | Step 98241788 / 1000000001 | TPS 18303.4 | ETA 13:41:07
Time 01:25:22 | Step 98424358 / 1000000001 | TPS 18257 | ETA 13:43:02
Time 01:25:32 | Step 98607824 / 1000000001 | TPS 18346.5 | ETA 13:38:51
Time 01:25:42 | Step 98791428 / 1000000001 | TPS 18360.4 | ETA 13:38:04
Time 01:25:52 | Step 98973566 / 1000000001 | TPS 18213.8 | ETA 13:44:29
Time 01:26:02 | Step 99155492 / 1000000001 | TPS 18192.6 | ETA 13:45:17
Time 01:26:12 | Step 99338104 / 1000000001 | TPS 18261.2 | ETA 13:42:01
Time 01:26:22 | Step 99521667 / 1000000001 | TPS 18356.3 | ETA 13:37:35
Time 01:26:32 | Step 99704983 / 1000000001 | TPS 18331.6 | ETA 13:38:31
Time 01:26:42 | Step 99888329 / 1000000001 | TPS 18334.5 | ETA 13:38:13
Time 01:26:52 | Step 100070941 / 1000000001 | TPS 18261.1 | ETA 13:41:21
Time 01:27:02 | Step 100254200 / 1000000001 | TPS 18325.9 | ETA 13:38:16
Time 01:27:12 | Step 100436468 / 1000000001 | TPS 18226.8 | ETA 13:42:33
Time 01:27:22 | Step 100619691 / 1000000001 | TPS 18322.3 | ETA 13:38:06
Time 01:27:32 | Step 100803502 / 1000000001 | TPS 18381 | ETA 13:35:19
Time 01:27:42 | Step 100985978 / 1000000001 | TPS 18247.6 | ETA 13:41:07
Time 01:27:52 | Step 101168579 / 1000000001 | TPS 18260.1 | ETA 13:40:23
Time 01:28:02 | Step 101351300 / 1000000001 | TPS 18272.1 | ETA 13:39:41
Time 01:28:12 | Step 101533858 / 1000000001 | TPS 18255.7 | ETA 13:40:15
Time 01:28:22 | Step 101717709 / 1000000001 | TPS 18385.1 | ETA 13:34:19
Time 01:28:32 | Step 101900725 / 1000000001 | TPS 18301.6 | ETA 13:37:52
Time 01:28:42 | Step 102084078 / 1000000001 | TPS 18335.3 | ETA 13:36:11
Time 01:28:52 | Step 102266979 / 1000000001 | TPS 18290.1 | ETA 13:38:03
Time 01:29:02 | Step 102449627 / 1000000001 | TPS 18264.8 | ETA 13:39:01
Time 01:29:12 | Step 102633176 / 1000000001 | TPS 18354.8 | ETA 13:34:49
Time 01:29:22 | Step 102817331 / 1000000001 | TPS 18415.5 | ETA 13:31:58
Time 01:29:32 | Step 102999206 / 1000000001 | TPS 18187.5 | ETA 13:41:59
Time 01:29:42 | Step 103180397 / 1000000001 | TPS 18119.1 | ETA 13:44:55
Time 01:29:52 | Step 103361976 / 1000000001 | TPS 18157.8 | ETA 13:43:00
Time 01:30:02 | Step 103542868 / 1000000001 | TPS 18089.1 | ETA 13:45:57
Time 01:30:12 | Step 103725025 / 1000000001 | TPS 18215.6 | ETA 13:40:03
Time 01:30:22 | Step 103908394 / 1000000001 | TPS 18336.9 | ETA 13:34:28
Time 01:30:32 | Step 104089207 / 1000000001 | TPS 18081.3 | ETA 13:45:49
Time 01:30:42 | Step 104268992 / 1000000001 | TPS 17978.5 | ETA 13:50:22
Time 01:30:52 | Step 104451998 / 1000000001 | TPS 18300.5 | ETA 13:35:35
Time 01:31:02 | Step 104635544 / 1000000001 | TPS 18354.6 | ETA 13:33:01
Time 01:31:12 | Step 104818801 / 1000000001 | TPS 18325.5 | ETA 13:34:09
Time 01:31:22 | Step 105001743 / 1000000001 | TPS 18294.1 | ETA 13:35:22
Time 01:31:32 | Step 105185129 / 1000000001 | TPS 18338.6 | ETA 13:33:14
Time 01:31:42 | Step 105367815 / 1000000001 | TPS 18268.6 | ETA 13:36:11
Time 01:31:52 | Step 105550003 / 1000000001 | TPS 18218.8 | ETA 13:38:14
Time 01:32:02 | Step 105734017 / 1000000001 | TPS 18401.2 | ETA 13:29:58
Time 01:32:12 | Step 105917626 / 1000000001 | TPS 18360.8 | ETA 13:31:35
Time 01:32:22 | Step 106101159 / 1000000001 | TPS 18353.3 | ETA 13:31:45
Time 01:32:32 | Step 106284088 / 1000000001 | TPS 18292.9 | ETA 13:34:15
Time 01:32:42 | Step 106466397 / 1000000001 | TPS 18230.9 | ETA 13:36:52
Time 01:32:52 | Step 106649775 / 1000000001 | TPS 18337.8 | ETA 13:31:56
Time 01:33:02 | Step 106832994 / 1000000001 | TPS 18321.7 | ETA 13:32:29
Time 01:33:12 | Step 107016098 / 1000000001 | TPS 18310.2 | ETA 13:32:49
Time 01:33:22 | Step 107198264 / 1000000001 | TPS 18216.5 | ETA 13:36:50
Time 01:33:32 | Step 107380938 / 1000000001 | TPS 18267.4 | ETA 13:34:24
Time 01:33:42 | Step 107563272 / 1000000001 | TPS 18233.4 | ETA 13:35:45
Time 01:33:52 | Step 107745971 / 1000000001 | TPS 18269.9 | ETA 13:33:57
Time 01:34:02 | Step 107928135 / 1000000001 | TPS 18216.3 | ETA 13:36:10
Time 01:34:12 | Step 108111610 / 1000000001 | TPS 18347.4 | ETA 13:30:11
Time 01:34:22 | Step 108294339 / 1000000001 | TPS 18272.9 | ETA 13:33:19
Time 01:34:32 | Step 108475795 / 1000000001 | TPS 18145.6 | ETA 13:38:51
Time 01:34:42 | Step 108657961 / 1000000001 | TPS 18216.5 | ETA 13:35:30
Time 01:34:52 | Step 108840546 / 1000000001 | TPS 18258.4 | ETA 13:33:28
Time 01:35:02 | Step 109023771 / 1000000001 | TPS 18322.4 | ETA 13:30:27
Time 01:35:12 | Step 109207184 / 1000000001 | TPS 18341.3 | ETA 13:29:27
Time 01:35:22 | Step 109390949 / 1000000001 | TPS 18376.5 | ETA 13:27:44
Time 01:35:32 | Step 109574581 / 1000000001 | TPS 18363.1 | ETA 13:28:09
Time 01:35:42 | Step 109757879 / 1000000001 | TPS 18329.8 | ETA 13:29:28
Time 01:35:52 | Step 109940815 / 1000000001 | TPS 18293.5 | ETA 13:30:54
Time 01:36:02 | Step 110124645 / 1000000001 | TPS 18383 | ETA 13:26:47
Time 01:36:12 | Step 110308124 / 1000000001 | TPS 18347.8 | ETA 13:28:10
Time 01:36:22 | Step 110488589 / 1000000001 | TPS 18046.5 | ETA 13:41:30
Time 01:36:32 | Step 110669033 / 1000000001 | TPS 18044.3 | ETA 13:41:25
Time 01:36:42 | Step 110850638 / 1000000001 | TPS 18160.5 | ETA 13:36:00
Time 01:36:52 | Step 111034015 / 1000000001 | TPS 18337.6 | ETA 13:27:57
Time 01:37:02 | Step 111216761 / 1000000001 | TPS 18274.4 | ETA 13:30:35
Time 01:37:12 | Step 111398541 / 1000000001 | TPS 18178 | ETA 13:34:43
Time 01:37:22 | Step 111581809 / 1000000001 | TPS 18326.7 | ETA 13:27:56
Time 01:37:32 | Step 111764884 / 1000000001 | TPS 18307.4 | ETA 13:28:37
Time 01:37:42 | Step 111948385 / 1000000001 | TPS 18350 | ETA 13:26:35
Time 01:37:52 | Step 112131489 / 1000000001 | TPS 18310.3 | ETA 13:28:10
Time 01:38:02 | Step 112315573 / 1000000001 | TPS 18408.4 | ETA 13:23:41
Time 01:38:12 | Step 112498240 / 1000000001 | TPS 18266.7 | ETA 13:29:45
Time 01:38:22 | Step 112680495 / 1000000001 | TPS 18225.5 | ETA 13:31:25
Time 01:38:32 | Step 112862546 / 1000000001 | TPS 18205.1 | ETA 13:32:10
Time 01:38:42 | Step 113045024 / 1000000001 | TPS 18247.7 | ETA 13:30:06
Time 01:38:52 | Step 113227986 / 1000000001 | TPS 18296.2 | ETA 13:27:47
Time 01:39:02 | Step 113410728 / 1000000001 | TPS 18274.2 | ETA 13:28:36
Time 01:39:12 | Step 113593930 / 1000000001 | TPS 18320.2 | ETA 13:26:24
Time 01:39:22 | Step 113777391 / 1000000001 | TPS 18346.1 | ETA 13:25:05
Time 01:39:32 | Step 113960401 / 1000000001 | TPS 18300.6 | ETA 13:26:55
Time 01:39:42 | Step 114143019 / 1000000001 | TPS 18261.8 | ETA 13:28:28
Time 01:39:52 | Step 114324586 / 1000000001 | TPS 18156.6 | ETA 13:32:59
Time 01:40:02 | Step 114507303 / 1000000001 | TPS 18271.7 | ETA 13:27:42
Time 01:40:12 | Step 114690802 / 1000000001 | TPS 18349.8 | ETA 13:24:06
Time 01:40:22 | Step 114874095 / 1000000001 | TPS 18329.3 | ETA 13:24:50
Time 01:40:32 | Step 115057342 / 1000000001 | TPS 18324.6 | ETA 13:24:52
Time 01:40:42 | Step 115240509 / 1000000001 | TPS 18316.7 | ETA 13:25:03
Time 01:40:52 | Step 115423521 / 1000000001 | TPS 18301.2 | ETA 13:25:34
Time 01:41:02 | Step 115606864 / 1000000001 | TPS 18334.2 | ETA 13:23:57
Time 01:41:12 | Step 115790288 / 1000000001 | TPS 18342.4 | ETA 13:23:25
Time 01:41:22 | Step 115973145 / 1000000001 | TPS 18285.6 | ETA 13:25:45
Time 01:41:32 | Step 116155693 / 1000000001 | TPS 18254.7 | ETA 13:26:57
Time 01:41:42 | Step 116338605 / 1000000001 | TPS 18291.1 | ETA 13:25:10
Time 01:41:52 | Step 116520449 / 1000000001 | TPS 18184.4 | ETA 13:29:44
Time 01:42:02 | Step 116700766 / 1000000001 | TPS 18031.7 | ETA 13:36:25
Time 01:42:12 | Step 116883655 / 1000000001 | TPS 18288.9 | ETA 13:24:47
Time 01:42:22 | Step 117066197 / 1000000001 | TPS 18254.2 | ETA 13:26:08
Time 01:42:32 | Step 117248414 / 1000000001 | TPS 18221.7 | ETA 13:27:25
Time 01:42:42 | Step 117432005 / 1000000001 | TPS 18359.1 | ETA 13:21:12
Time 01:42:52 | Step 117614739 / 1000000001 | TPS 18273.3 | ETA 13:24:48
Time 01:43:02 | Step 117797401 / 1000000001 | TPS 18266.2 | ETA 13:24:57
Time 01:43:12 | Step 117980889 / 1000000001 | TPS 18348.7 | ETA 13:21:09
Time 01:43:22 | Step 118164601 / 1000000001 | TPS 18371.1 | ETA 13:20:01
Time 01:43:32 | Step 118348270 / 1000000001 | TPS 18366.9 | ETA 13:20:02
Time 01:43:42 | Step 118531816 / 1000000001 | TPS 18354.6 | ETA 13:20:24
Time 01:43:52 | Step 118713778 / 1000000001 | TPS 18196.2 | ETA 13:27:12
Time 01:44:02 | Step 118895637 / 1000000001 | TPS 18185.9 | ETA 13:27:29
Time 01:44:12 | Step 119078799 / 1000000001 | TPS 18316.2 | ETA 13:21:35
Time 01:44:22 | Step 119261747 / 1000000001 | TPS 18294.8 | ETA 13:22:21
Time 01:44:32 | Step 119443850 / 1000000001 | TPS 18210.2 | ETA 13:25:54
Time 01:44:42 | Step 119625468 / 1000000001 | TPS 18161.6 | ETA 13:27:54
Time 01:44:52 | Step 119808460 / 1000000001 | TPS 18299.2 | ETA 13:21:40
Time 01:45:02 | Step 119991603 / 1000000001 | TPS 18314.2 | ETA 13:20:50
Time 01:45:12 | Step 120174552 / 1000000001 | TPS 18294.7 | ETA 13:21:31
Time 01:45:22 | Step 120357940 / 1000000001 | TPS 18338.8 | ETA 13:19:26
Time 01:45:32 | Step 120540868 / 1000000001 | TPS 18292.8 | ETA 13:21:16
Time 01:45:42 | Step 120721024 / 1000000001 | TPS 18015.5 | ETA 13:33:26
Time 01:45:52 | Step 120904446 / 1000000001 | TPS 18342.2 | ETA 13:18:47
Time 01:46:02 | Step 121087224 / 1000000001 | TPS 18277.7 | ETA 13:21:26
Time 01:46:12 | Step 121268776 / 1000000001 | TPS 18155.1 | ETA 13:26:41
Time 01:46:22 | Step 121451299 / 1000000001 | TPS 18252.2 | ETA 13:22:13
Time 01:46:32 | Step 121634259 / 1000000001 | TPS 18295.9 | ETA 13:20:09
Time 01:46:42 | Step 121815561 / 1000000001 | TPS 18130.1 | ETA 13:27:17
Time 01:46:52 | Step 121998311 / 1000000001 | TPS 18274.9 | ETA 13:20:44
Time 01:47:02 | Step 122181320 / 1000000001 | TPS 18300.9 | ETA 13:19:25
Time 01:47:12 | Step 122363477 / 1000000001 | TPS 18215.7 | ETA 13:23:00
Time 01:47:22 | Step 122545623 / 1000000001 | TPS 18214.4 | ETA 13:22:53
Time 01:47:32 | Step 122727707 / 1000000001 | TPS 18208.3 | ETA 13:22:59
Time 01:47:42 | Step 122909253 / 1000000001 | TPS 18154.6 | ETA 13:25:12
Time 01:47:52 | Step 123090435 / 1000000001 | TPS 18118.2 | ETA 13:26:39
Time 01:48:02 | Step 123273281 / 1000000001 | TPS 18284.6 | ETA 13:19:08
Time 01:48:12 | Step 123456099 / 1000000001 | TPS 18281.7 | ETA 13:19:06
Time 01:48:22 | Step 123638922 / 1000000001 | TPS 18282.2 | ETA 13:18:55
Time 01:48:32 | Step 123822511 / 1000000001 | TPS 18358.9 | ETA 13:15:25
Time 01:48:42 | Step 124004547 / 1000000001 | TPS 18203.5 | ETA 13:22:02
Time 01:48:52 | Step 124186715 / 1000000001 | TPS 18216.8 | ETA 13:21:17
Time 01:49:02 | Step 124368414 / 1000000001 | TPS 18169.9 | ETA 13:23:11
Time 01:49:12 | Step 124549933 / 1000000001 | TPS 18151.8 | ETA 13:23:49
Time 01:49:22 | Step 124731115 / 1000000001 | TPS 18118.2 | ETA 13:25:08
Time 01:49:32 | Step 124911595 / 1000000001 | TPS 18048 | ETA 13:28:06
Time 01:49:42 | Step 125093237 / 1000000001 | TPS 18164.2 | ETA 13:22:46
Time 01:49:52 | Step 125275926 / 1000000001 | TPS 18268.8 | ETA 13:18:00
Time 01:50:02 | Step 125458645 / 1000000001 | TPS 18271.8 | ETA 13:17:42
Time 01:50:12 | Step 125640625 / 1000000001 | TPS 18198 | ETA 13:20:47
Time 01:50:22 | Step 125823293 / 1000000001 | TPS 18266.8 | ETA 13:17:36
Time 01:50:32 | Step 126006235 / 1000000001 | TPS 18294.1 | ETA 13:16:14
Time 01:50:42 | Step 126189228 / 1000000001 | TPS 18299.3 | ETA 13:15:51
Time 01:50:52 | Step 126372925 / 1000000001 | TPS 18369.6 | ETA 13:12:38
Time 01:51:02 | Step 126555811 / 1000000001 | TPS 18288.5 | ETA 13:15:59
Time 01:51:12 | Step 126738492 / 1000000001 | TPS 18268.1 | ETA 13:16:42
Time 01:51:22 | Step 126921145 / 1000000001 | TPS 18265.3 | ETA 13:16:39
Time 01:51:32 | Step 127102585 / 1000000001 | TPS 18143.9 | ETA 13:21:49
Time 01:51:42 | Step 127285793 / 1000000001 | TPS 18320.8 | ETA 13:13:55
Time 01:51:52 | Step 127468850 / 1000000001 | TPS 18305.7 | ETA 13:14:24
Time 01:52:02 | Step 127650672 / 1000000001 | TPS 18182.1 | ETA 13:19:38
Time 01:52:12 | Step 127833780 / 1000000001 | TPS 18310.6 | ETA 13:13:51
Time 01:52:22 | Step 128016522 / 1000000001 | TPS 18274.1 | ETA 13:15:16
Time 01:52:32 | Step 128198778 / 1000000001 | TPS 18225.6 | ETA 13:17:13
Time 01:52:42 | Step 128380029 / 1000000001 | TPS 18125 | ETA 13:21:29
Time 01:52:52 | Step 128561824 / 1000000001 | TPS 18179.4 | ETA 13:18:55
Time 01:53:02 | Step 128744832 / 1000000001 | TPS 18300.8 | ETA 13:13:27
Time 01:53:12 | Step 128928231 / 1000000001 | TPS 18339.8 | ETA 13:11:36
Time 01:53:22 | Step 129111205 / 1000000001 | TPS 18297.3 | ETA 13:13:16
Time 01:53:32 | Step 129294435 / 1000000001 | TPS 18323 | ETA 13:11:59
Time 01:53:42 | Step 129478134 / 1000000001 | TPS 18369.8 | ETA 13:09:48
Time 01:53:52 | Step 129661696 / 1000000001 | TPS 18356.1 | ETA 13:10:14
Time 01:54:02 | Step 129844780 / 1000000001 | TPS 18308.4 | ETA 13:12:07
Time 01:54:12 | Step 130026435 / 1000000001 | TPS 18165.4 | ETA 13:18:11
Time 01:54:22 | Step 130208257 / 1000000001 | TPS 18182.1 | ETA 13:17:17
Time 01:54:32 | Step 130390472 / 1000000001 | TPS 18221.5 | ETA 13:15:24
Time 01:54:42 | Step 130573341 / 1000000001 | TPS 18286.8 | ETA 13:12:23
Time 01:54:52 | Step 130755405 / 1000000001 | TPS 18206.4 | ETA 13:15:43
Time 01:55:02 | Step 130938980 / 1000000001 | TPS 18357.4 | ETA 13:09:01
Time 01:55:12 | Step 131122155 / 1000000001 | TPS 18317.4 | ETA 13:10:34
Time 01:55:22 | Step 131305255 / 1000000001 | TPS 18310 | ETA 13:10:43
Time 01:55:32 | Step 131488781 / 1000000001 | TPS 18352.4 | ETA 13:08:44
Time 01:55:42 | Step 131671973 / 1000000001 | TPS 18319.1 | ETA 13:10:00
Time 01:55:52 | Step 131853323 / 1000000001 | TPS 18134.9 | ETA 13:17:51
Time 01:56:02 | Step 132035340 / 1000000001 | TPS 18201.7 | ETA 13:14:45
Time 01:56:12 | Step 132219270 / 1000000001 | TPS 18392.9 | ETA 13:06:20
Time 01:56:22 | Step 132402218 / 1000000001 | TPS 18294.7 | ETA 13:10:23
Time 01:56:32 | Step 132585799 / 1000000001 | TPS 18358.1 | ETA 13:07:29
Time 01:56:42 | Step 132769360 / 1000000001 | TPS 18356.1 | ETA 13:07:24
Time 01:56:52 | Step 132952516 / 1000000001 | TPS 18315.5 | ETA 13:08:59
Time 01:57:02 | Step 133135456 / 1000000001 | TPS 18293.9 | ETA 13:09:45
Time 01:57:12 | Step 133318693 / 1000000001 | TPS 18323.6 | ETA 13:08:18
Time 01:57:22 | Step 133502029 / 1000000001 | TPS 18333.6 | ETA 13:07:42
Time 01:57:32 | Step 133685105 / 1000000001 | TPS 18307.5 | ETA 13:08:40
Time 01:57:42 | Step 133867589 / 1000000001 | TPS 18248.4 | ETA 13:11:03
Time 01:57:52 | Step 134050720 / 1000000001 | TPS 18313.1 | ETA 13:08:05
Time 01:58:02 | Step 134232767 / 1000000001 | TPS 18204.7 | ETA 13:12:37
Time 01:58:12 | Step 134413509 / 1000000001 | TPS 18074 | ETA 13:18:11
Time 01:58:22 | Step 134595495 / 1000000001 | TPS 18198.5 | ETA 13:12:33
Time 01:58:32 | Step 134779510 / 1000000001 | TPS 18401.4 | ETA 13:03:39
Time 01:58:42 | Step 134962700 / 1000000001 | TPS 18318.9 | ETA 13:07:00
Time 01:58:52 | Step 135145331 / 1000000001 | TPS 18263.1 | ETA 13:09:15
Time 01:59:02 | Step 135326390 / 1000000001 | TPS 18105.9 | ETA 13:15:56
Time 01:59:12 | Step 135508926 / 1000000001 | TPS 18253.5 | ETA 13:09:20
Time 01:59:22 | Step 135691893 / 1000000001 | TPS 18296.7 | ETA 13:07:18
Time 01:59:32 | Step 135874616 / 1000000001 | TPS 18272.2 | ETA 13:08:11
Time 01:59:42 | Step 136057777 / 1000000001 | TPS 18316 | ETA 13:06:08
Time 01:59:52 | Step 136240643 / 1000000001 | TPS 18286.5 | ETA 13:07:14
Time 02:00:02 | Step 136423778 / 1000000001 | TPS 18313.4 | ETA 13:05:55
Time 02:00:12 | Step 136606847 / 1000000001 | TPS 18306.9 | ETA 13:06:02
Time 02:00:22 | Step 136789733 / 1000000001 | TPS 18288.5 | ETA 13:06:39
Time 02:00:32 | Step 136972830 / 1000000001 | TPS 18309.7 | ETA 13:05:35
Time 02:00:42 | Step 137154587 / 1000000001 | TPS 18175.7 | ETA 13:11:12
Time 02:00:52 | Step 137336143 / 1000000001 | TPS 18155.6 | ETA 13:11:55
Time 02:01:02 | Step 137518914 / 1000000001 | TPS 18277 | ETA 13:06:29
Time 02:01:12 | Step 137702680 / 1000000001 | TPS 18376.6 | ETA 13:02:03
Time 02:01:22 | Step 137885144 / 1000000001 | TPS 18246.4 | ETA 13:07:28
Time 02:01:32 | Step 138067742 / 1000000001 | TPS 18259.7 | ETA 13:06:44
Time 02:01:42 | Step 138251060 / 1000000001 | TPS 18331.8 | ETA 13:03:28
Time 02:01:52 | Step 138433559 / 1000000001 | TPS 18249.9 | ETA 13:06:49
Time 02:02:02 | Step 138614297 / 1000000001 | TPS 18073.8 | ETA 13:14:19
Time 02:02:12 | Step 138797329 / 1000000001 | TPS 18303.2 | ETA 13:04:12
Time 02:02:22 | Step 138980586 / 1000000001 | TPS 18325.7 | ETA 13:03:04
Time 02:02:32 | Step 139163184 / 1000000001 | TPS 18259.7 | ETA 13:05:44
Time 02:02:42 | Step 139346581 / 1000000001 | TPS 18339.7 | ETA 13:02:08
Time 02:02:52 | Step 139528975 / 1000000001 | TPS 18239.3 | ETA 13:06:16
Time 02:03:02 | Step 139711178 / 1000000001 | TPS 18220.3 | ETA 13:06:55
Time 02:03:12 | Step 139893491 / 1000000001 | TPS 18231.3 | ETA 13:06:17
Time 02:03:22 | Step 140076212 / 1000000001 | TPS 18272.1 | ETA 13:04:22
Time 02:03:32 | Step 140258582 / 1000000001 | TPS 18237 | ETA 13:05:42
Time 02:03:42 | Step 140441808 / 1000000001 | TPS 18322.4 | ETA 13:01:52
Time 02:03:52 | Step 140624396 / 1000000001 | TPS 18258.8 | ETA 13:04:26
Time 02:04:02 | Step 140806429 / 1000000001 | TPS 18203.2 | ETA 13:06:40
Time 02:04:12 | Step 140988217 / 1000000001 | TPS 18178.6 | ETA 13:07:33
Time 02:04:22 | Step 141170964 / 1000000001 | TPS 18274.6 | ETA 13:03:15
Time 02:04:32 | Step 141354737 / 1000000001 | TPS 18377.2 | ETA 12:58:43
Time 02:04:42 | Step 141538282 / 1000000001 | TPS 18354.5 | ETA 12:59:31
Time 02:04:52 | Step 141721972 / 1000000001 | TPS 18369 | ETA 12:58:44
Time 02:05:02 | Step 141905553 / 1000000001 | TPS 18358 | ETA 12:59:02
Time 02:05:12 | Step 142088821 / 1000000001 | TPS 18326.8 | ETA 13:00:11
Time 02:05:22 | Step 142270998 / 1000000001 | TPS 18217.7 | ETA 13:04:42
Time 02:05:32 | Step 142453104 / 1000000001 | TPS 18210.6 | ETA 13:04:50
Time 02:05:42 | Step 142635376 / 1000000001 | TPS 18227.2 | ETA 13:03:57
Time 02:05:52 | Step 142818468 / 1000000001 | TPS 18309.1 | ETA 13:00:17
Time 02:06:02 | Step 143001601 / 1000000001 | TPS 18313.2 | ETA 12:59:56
Time 02:06:12 | Step 143184933 / 1000000001 | TPS 18333.1 | ETA 12:58:55
Time 02:06:22 | Step 143367959 / 1000000001 | TPS 18302.6 | ETA 13:00:03
Time 02:06:32 | Step 143550118 / 1000000001 | TPS 18215.8 | ETA 13:03:36
Time 02:06:42 | Step 143732770 / 1000000001 | TPS 18265.2 | ETA 13:01:19
Time 02:06:52 | Step 143915713 / 1000000001 | TPS 18294.3 | ETA 12:59:55
Time 02:07:02 | Step 144097622 / 1000000001 | TPS 18190.9 | ETA 13:04:11
Time 02:07:12 | Step 144280457 / 1000000001 | TPS 18283.5 | ETA 13:00:02
Time 02:07:22 | Step 144463788 / 1000000001 | TPS 18333 | ETA 12:57:46
Time 02:07:32 | Step 144645904 / 1000000001 | TPS 18211.6 | ETA 13:02:47
Time 02:07:42 | Step 144827708 / 1000000001 | TPS 18180.3 | ETA 13:03:58
Time 02:07:52 | Step 145009286 / 1000000001 | TPS 18157.8 | ETA 13:04:46
Time 02:08:02 | Step 145192716 / 1000000001 | TPS 18342.9 | ETA 12:56:41
Time 02:08:12 | Step 145376838 / 1000000001 | TPS 18412.1 | ETA 12:53:36
Time 02:08:22 | Step 145560573 / 1000000001 | TPS 18373.5 | ETA 12:55:03
Time 02:08:32 | Step 145743359 / 1000000001 | TPS 18278.5 | ETA 12:58:55
Time 02:08:42 | Step 145926309 / 1000000001 | TPS 18295 | ETA 12:58:03
Time 02:08:52 | Step 146109573 / 1000000001 | TPS 18326.4 | ETA 12:56:33
Time 02:09:02 | Step 146293029 / 1000000001 | TPS 18345.6 | ETA 12:55:34
Time 02:09:12 | Step 146475971 / 1000000001 | TPS 18294.2 | ETA 12:57:35
Time 02:09:22 | Step 146658160 / 1000000001 | TPS 18218.8 | ETA 13:00:38
Time 02:09:32 | Step 146840642 / 1000000001 | TPS 18248.2 | ETA 12:59:13
Time 02:09:42 | Step 147023688 / 1000000001 | TPS 18304.5 | ETA 12:56:39
Time 02:09:52 | Step 147207146 / 1000000001 | TPS 18345.8 | ETA 12:54:44
Time 02:10:02 | Step 147390693 / 1000000001 | TPS 18354.6 | ETA 12:54:12
Time 02:10:12 | Step 147573180 / 1000000001 | TPS 18248.7 | ETA 12:58:31
Time 02:10:22 | Step 147756038 / 1000000001 | TPS 18285.7 | ETA 12:56:47
Time 02:10:32 | Step 147938425 / 1000000001 | TPS 18238.7 | ETA 12:58:37
Time 02:10:42 | Step 148121025 / 1000000001 | TPS 18259.9 | ETA 12:57:32
Time 02:10:52 | Step 148303990 / 1000000001 | TPS 18296.5 | ETA 12:55:49
Time 02:11:02 | Step 148488193 / 1000000001 | TPS 18420.2 | ETA 12:50:26
Time 02:11:12 | Step 148671612 / 1000000001 | TPS 18341.9 | ETA 12:53:34
Time 02:11:22 | Step 148854874 / 1000000001 | TPS 18326.1 | ETA 12:54:04
Time 02:11:32 | Step 149037591 / 1000000001 | TPS 18271.6 | ETA 12:56:13
Time 02:11:42 | Step 149221268 / 1000000001 | TPS 18367.7 | ETA 12:51:59
Time 02:11:52 | Step 149404797 / 1000000001 | TPS 18352.8 | ETA 12:52:26
Time 02:12:02 | Step 149587966 / 1000000001 | TPS 18316.9 | ETA 12:53:47
Time 02:12:12 | Step 149771856 / 1000000001 | TPS 18389 | ETA 12:50:35
Time 02:12:22 | Step 149955399 / 1000000001 | TPS 18354.2 | ETA 12:51:53
Time 02:12:32 | Step 150139170 / 1000000001 | TPS 18377.1 | ETA 12:50:45
Time 02:12:42 | Step 150321097 / 1000000001 | TPS 18192.6 | ETA 12:58:24
Time 02:12:52 | Step 150503632 / 1000000001 | TPS 18253.5 | ETA 12:55:38
Time 02:13:02 | Step 150686336 / 1000000001 | TPS 18270.3 | ETA 12:54:46
Time 02:13:12 | Step 150868770 / 1000000001 | TPS 18243.3 | ETA 12:55:44
Time 02:13:22 | Step 151050859 / 1000000001 | TPS 18208.8 | ETA 12:57:02
Time 02:13:32 | Step 151233407 / 1000000001 | TPS 18254.7 | ETA 12:54:55
Time 02:13:42 | Step 151415843 / 1000000001 | TPS 18243.6 | ETA 12:55:14
Time 02:13:52 | Step 151597681 / 1000000001 | TPS 18183.7 | ETA 12:57:37
Time 02:14:02 | Step 151780133 / 1000000001 | TPS 18245.2 | ETA 12:54:50
Time 02:14:12 | Step 151963015 / 1000000001 | TPS 18288.2 | ETA 12:52:50
Time 02:14:22 | Step 152145473 / 1000000001 | TPS 18245.6 | ETA 12:54:28
Time 02:14:32 | Step 152328524 / 1000000001 | TPS 18305.1 | ETA 12:51:47
Time 02:14:42 | Step 152511047 / 1000000001 | TPS 18252.3 | ETA 12:53:51
Time 02:14:52 | Step 152693938 / 1000000001 | TPS 18289 | ETA 12:52:08
Time 02:15:02 | Step 152876586 / 1000000001 | TPS 18264.8 | ETA 12:53:00
Time 02:15:12 | Step 153060001 / 1000000001 | TPS 18341.2 | ETA 12:49:36
Time 02:15:22 | Step 153243713 / 1000000001 | TPS 18371.2 | ETA 12:48:11
Time 02:15:32 | Step 153426692 / 1000000001 | TPS 18297.8 | ETA 12:51:06
Time 02:15:42 | Step 153609527 / 1000000001 | TPS 18283.4 | ETA 12:51:32
Time 02:15:52 | Step 153792777 / 1000000001 | TPS 18324.8 | ETA 12:49:38
Time 02:16:02 | Step 153974245 / 1000000001 | TPS 18146.7 | ETA 12:57:01
Time 02:16:12 | Step 154156495 / 1000000001 | TPS 18225 | ETA 12:53:31
Time 02:16:22 | Step 154338307 / 1000000001 | TPS 18181.2 | ETA 12:55:13
Time 02:16:32 | Step 154520797 / 1000000001 | TPS 18248.9 | ETA 12:52:10
Time 02:16:42 | Step 154703137 / 1000000001 | TPS 18233.9 | ETA 12:52:38
Time 02:16:52 | Step 154885888 / 1000000001 | TPS 18274.9 | ETA 12:50:44
Time 02:17:02 | Step 155069360 / 1000000001 | TPS 18347.2 | ETA 12:47:32
Time 02:17:12 | Step 155252795 / 1000000001 | TPS 18343.4 | ETA 12:47:31
Time 02:17:22 | Step 155436011 / 1000000001 | TPS 18321.6 | ETA 12:48:16
Time 02:17:32 | Step 155619456 / 1000000001 | TPS 18344.5 | ETA 12:47:09
Time 02:17:42 | Step 155802641 / 1000000001 | TPS 18318.5 | ETA 12:48:04
Time 02:17:52 | Step 155985553 / 1000000001 | TPS 18291.2 | ETA 12:49:03
Time 02:18:02 | Step 156168955 / 1000000001 | TPS 18340.1 | ETA 12:46:50
Time 02:18:12 | Step 156353200 / 1000000001 | TPS 18424.5 | ETA 12:43:09
Time 02:18:22 | Step 156536215 / 1000000001 | TPS 18301.5 | ETA 12:48:07
Time 02:18:32 | Step 156719417 / 1000000001 | TPS 18320.2 | ETA 12:47:10
Time 02:18:42 | Step 156900370 / 1000000001 | TPS 18095.3 | ETA 12:56:32
Time 02:18:52 | Step 157082676 / 1000000001 | TPS 18230.6 | ETA 12:50:36
Time 02:19:02 | Step 157264469 / 1000000001 | TPS 18179.2 | ETA 12:52:37
Time 02:19:12 | Step 157446981 / 1000000001 | TPS 18251.2 | ETA 12:49:24
Time 02:19:22 | Step 157630136 / 1000000001 | TPS 18315.5 | ETA 12:46:32
Time 02:19:32 | Step 157813244 / 1000000001 | TPS 18310.8 | ETA 12:46:34
Time 02:19:42 | Step 157996641 / 1000000001 | TPS 18339.7 | ETA 12:45:11
Time 02:19:52 | Step 158179353 / 1000000001 | TPS 18271.2 | ETA 12:47:53
Time 02:20:02 | Step 158361182 / 1000000001 | TPS 18182.8 | ETA 12:51:27
Time 02:20:12 | Step 158542136 / 1000000001 | TPS 18095.3 | ETA 12:55:01
Time 02:20:22 | Step 158724157 / 1000000001 | TPS 18202 | ETA 12:50:18
Time 02:20:32 | Step 158905849 / 1000000001 | TPS 18169.2 | ETA 12:51:32
Time 02:20:42 | Step 159087972 / 1000000001 | TPS 18212.2 | ETA 12:49:32
Time 02:20:52 | Step 159271541 / 1000000001 | TPS 18356.7 | ETA 12:43:19
Time 02:21:02 | Step 159454585 / 1000000001 | TPS 18304.3 | ETA 12:45:20
Time 02:21:12 | Step 159638054 / 1000000001 | TPS 18346.9 | ETA 12:43:24
Time 02:21:22 | Step 159821394 / 1000000001 | TPS 18334 | ETA 12:43:46
Time 02:21:32 | Step 160003422 / 1000000001 | TPS 18202.7 | ETA 12:49:06
Time 02:21:42 | Step 160187173 / 1000000001 | TPS 18375 | ETA 12:41:44
Time 02:21:52 | Step 160370278 / 1000000001 | TPS 18310.4 | ETA 12:44:15
Time 02:22:02 | Step 160554049 / 1000000001 | TPS 18377 | ETA 12:41:19
Time 02:22:12 | Step 160737578 / 1000000001 | TPS 18352.9 | ETA 12:42:09
Time 02:22:22 | Step 160919407 / 1000000001 | TPS 18182.8 | ETA 12:49:06
Time 02:22:32 | Step 161100317 / 1000000001 | TPS 18091 | ETA 12:52:51
Time 02:22:42 | Step 161281736 / 1000000001 | TPS 18141.9 | ETA 12:50:31
Time 02:22:52 | Step 161464026 / 1000000001 | TPS 18228.9 | ETA 12:46:40
Time 02:23:02 | Step 161647480 / 1000000001 | TPS 18345.3 | ETA 12:41:38
Time 02:23:12 | Step 161830493 / 1000000001 | TPS 18301.2 | ETA 12:43:18
Time 02:23:22 | Step 162013016 / 1000000001 | TPS 18252.2 | ETA 12:45:11
Time 02:23:32 | Step 162194965 / 1000000001 | TPS 18194.9 | ETA 12:47:26
Time 02:23:42 | Step 162378120 / 1000000001 | TPS 18315.3 | ETA 12:42:13
Time 02:23:52 | Step 162561246 / 1000000001 | TPS 18312.6 | ETA 12:42:10
Time 02:24:02 | Step 162744604 / 1000000001 | TPS 18335.7 | ETA 12:41:02
Time 02:24:12 | Step 162927804 / 1000000001 | TPS 18320 | ETA 12:41:31
Time 02:24:22 | Step 163109957 / 1000000001 | TPS 18215.2 | ETA 12:45:44
Time 02:24:32 | Step 163291701 / 1000000001 | TPS 18174.3 | ETA 12:47:17
Time 02:24:42 | Step 163474805 / 1000000001 | TPS 18310.3 | ETA 12:41:25
Time 02:24:52 | Step 163656742 / 1000000001 | TPS 18193.7 | ETA 12:46:08
Time 02:25:02 | Step 163838087 / 1000000001 | TPS 18134.4 | ETA 12:48:29
Time 02:25:12 | Step 164020657 / 1000000001 | TPS 18256.9 | ETA 12:43:09
Time 02:25:22 | Step 164203188 / 1000000001 | TPS 18253 | ETA 12:43:09
Time 02:25:32 | Step 164385689 / 1000000001 | TPS 18250.1 | ETA 12:43:06
Time 02:25:42 | Step 164568080 / 1000000001 | TPS 18239 | ETA 12:43:24
Time 02:25:52 | Step 164751130 / 1000000001 | TPS 18304.8 | ETA 12:40:29
Time 02:26:02 | Step 164935242 / 1000000001 | TPS 18411.2 | ETA 12:35:56
Time 02:26:12 | Step 165118222 / 1000000001 | TPS 18297.8 | ETA 12:40:27
Time 02:26:22 | Step 165301463 / 1000000001 | TPS 18324.1 | ETA 12:39:12
Time 02:26:32 | Step 165484986 / 1000000001 | TPS 18352.2 | ETA 12:37:52
Time 02:26:42 | Step 165668953 / 1000000001 | TPS 18396.7 | ETA 12:35:52
Time 02:26:52 | Step 165852434 / 1000000001 | TPS 18348 | ETA 12:37:42
Time 02:27:02 | Step 166034738 / 1000000001 | TPS 18230.3 | ETA 12:42:26
Time 02:27:12 | Step 166217073 / 1000000001 | TPS 18233.5 | ETA 12:42:08
Time 02:27:22 | Step 166400062 / 1000000001 | TPS 18298.9 | ETA 12:39:14
Time 02:27:32 | Step 166583030 / 1000000001 | TPS 18296.8 | ETA 12:39:09
Time 02:27:42 | Step 166766413 / 1000000001 | TPS 18338.2 | ETA 12:37:16
Time 02:27:52 | Step 166949942 / 1000000001 | TPS 18352.9 | ETA 12:36:30
Time 02:28:02 | Step 167133122 / 1000000001 | TPS 18318 | ETA 12:37:47
Time 02:28:12 | Step 167315870 / 1000000001 | TPS 18274.8 | ETA 12:39:24
Time 02:28:22 | Step 167497721 / 1000000001 | TPS 18185 | ETA 12:42:59
Time 02:28:32 | Step 167680313 / 1000000001 | TPS 18259.2 | ETA 12:39:43
Time 02:28:42 | Step 167864248 / 1000000001 | TPS 18393.4 | ETA 12:34:00
Time 02:28:52 | Step 168047182 / 1000000001 | TPS 18293.3 | ETA 12:37:58
Time 02:29:02 | Step 168230715 / 1000000001 | TPS 18353.2 | ETA 12:35:20
Time 02:29:12 | Step 168413941 / 1000000001 | TPS 18322.4 | ETA 12:36:26
Time 02:29:22 | Step 168597291 / 1000000001 | TPS 18334.9 | ETA 12:35:45
Time 02:29:32 | Step 168781046 / 1000000001 | TPS 18375.4 | ETA 12:33:55
Time 02:29:42 | Step 168964385 / 1000000001 | TPS 18333.8 | ETA 12:35:27
Time 02:29:52 | Step 169147016 / 1000000001 | TPS 18263 | ETA 12:38:13
Time 02:30:02 | Step 169328699 / 1000000001 | TPS 18168.2 | ETA 12:42:01
Time 02:30:12 | Step 169511511 / 1000000001 | TPS 18281.1 | ETA 12:37:08
Time 02:30:22 | Step 169694727 / 1000000001 | TPS 18321.6 | ETA 12:35:18
Time 02:30:32 | Step 169877820 / 1000000001 | TPS 18309.3 | ETA 12:35:38
Time 02:30:42 | Step 170060766 / 1000000001 | TPS 18294.6 | ETA 12:36:05
Time 02:30:52 | Step 170244182 / 1000000001 | TPS 18341.6 | ETA 12:33:59
Time 02:31:02 | Step 170428190 / 1000000001 | TPS 18400.7 | ETA 12:31:23
Time 02:31:12 | Step 170611811 / 1000000001 | TPS 18362 | ETA 12:32:48
Time 02:31:22 | Step 170795419 / 1000000001 | TPS 18360.7 | ETA 12:32:41
Time 02:31:32 | Step 170979033 / 1000000001 | TPS 18361.4 | ETA 12:32:30
Time 02:31:42 | Step 171162489 / 1000000001 | TPS 18345.6 | ETA 12:32:59
Time 02:31:52 | Step 171345700 / 1000000001 | TPS 18321 | ETA 12:33:49
Time 02:32:02 | Step 171528860 / 1000000001 | TPS 18316 | ETA 12:33:52
Time 02:32:12 | Step 171711901 / 1000000001 | TPS 18304 | ETA 12:34:11
Time 02:32:22 | Step 171894601 / 1000000001 | TPS 18269.6 | ETA 12:35:26
Time 02:32:32 | Step 172077529 / 1000000001 | TPS 18292.8 | ETA 12:34:19
Time 02:32:42 | Step 172261154 / 1000000001 | TPS 18362.4 | ETA 12:31:17
Time 02:32:52 | Step 172444863 / 1000000001 | TPS 18370.8 | ETA 12:30:47
Time 02:33:02 | Step 172628431 / 1000000001 | TPS 18356.8 | ETA 12:31:11
Time 02:33:12 | Step 172811563 / 1000000001 | TPS 18313.1 | ETA 12:32:49
Time 02:33:22 | Step 172993800 / 1000000001 | TPS 18223.7 | ETA 12:36:20
Time 02:33:32 | Step 173174803 / 1000000001 | TPS 18100.3 | ETA 12:41:20
Time 02:33:42 | Step 173358036 / 1000000001 | TPS 18323.3 | ETA 12:31:54
Time 02:33:52 | Step 173541107 / 1000000001 | TPS 18307.1 | ETA 12:32:24
Time 02:34:02 | Step 173724084 / 1000000001 | TPS 18297.7 | ETA 12:32:37
Time 02:34:12 | Step 173906800 / 1000000001 | TPS 18271.5 | ETA 12:33:32
Time 02:34:22 | Step 174090157 / 1000000001 | TPS 18335.7 | ETA 12:30:43
Time 02:34:32 | Step 174274006 / 1000000001 | TPS 18384.8 | ETA 12:28:33
Time 02:34:42 | Step 174457860 / 1000000001 | TPS 18385.4 | ETA 12:28:22
Time 02:34:52 | Step 174641562 / 1000000001 | TPS 18370 | ETA 12:28:49
Time 02:35:02 | Step 174824860 / 1000000001 | TPS 18329.7 | ETA 12:30:18
Time 02:35:12 | Step 175008324 / 1000000001 | TPS 18346.4 | ETA 12:29:27
Time 02:35:22 | Step 175189914 / 1000000001 | TPS 18159 | ETA 12:37:01
Time 02:35:32 | Step 175372172 / 1000000001 | TPS 18225.8 | ETA 12:34:05
Time 02:35:42 | Step 175554918 / 1000000001 | TPS 18274.5 | ETA 12:31:54
Time 02:35:52 | Step 175738131 / 1000000001 | TPS 18321.2 | ETA 12:29:49
Time 02:36:02 | Step 175921416 / 1000000001 | TPS 18328.3 | ETA 12:29:21
Time 02:36:12 | Step 176104482 / 1000000001 | TPS 18306.6 | ETA 12:30:05
Time 02:36:22 | Step 176287305 / 1000000001 | TPS 18282.2 | ETA 12:30:55
Time 02:36:32 | Step 176468755 / 1000000001 | TPS 18144.9 | ETA 12:36:26
Time 02:36:42 | Step 176651565 / 1000000001 | TPS 18281 | ETA 12:30:38
Time 02:36:52 | Step 176834133 / 1000000001 | TPS 18256.8 | ETA 12:31:28
Time 02:37:02 | Step 177016801 / 1000000001 | TPS 18266.6 | ETA 12:30:53
Time 02:37:12 | Step 177199870 / 1000000001 | TPS 18306.6 | ETA 12:29:05
Time 02:37:22 | Step 177382679 / 1000000001 | TPS 18280.8 | ETA 12:29:58
Time 02:37:32 | Step 177566631 / 1000000001 | TPS 18395.1 | ETA 12:25:09
Time 02:37:42 | Step 177750264 / 1000000001 | TPS 18363.3 | ETA 12:26:16
Time 02:37:52 | Step 177932669 / 1000000001 | TPS 18240.5 | ETA 12:31:08
Time 02:38:02 | Step 178116250 / 1000000001 | TPS 18358.1 | ETA 12:26:09
Time 02:38:12 | Step 178299972 / 1000000001 | TPS 18372.1 | ETA 12:25:25
Time 02:38:22 | Step 178483451 / 1000000001 | TPS 18347.8 | ETA 12:26:14
Time 02:38:32 | Step 178666711 / 1000000001 | TPS 18325.9 | ETA 12:26:58
Time 02:38:42 | Step 178849973 / 1000000001 | TPS 18326.1 | ETA 12:26:47
Time 02:38:52 | Step 179032819 / 1000000001 | TPS 18284.6 | ETA 12:28:19
Time 02:39:02 | Step 179216562 / 1000000001 | TPS 18374.3 | ETA 12:24:30
Time 02:39:12 | Step 179399735 / 1000000001 | TPS 18317.3 | ETA 12:26:39
Time 02:39:22 | Step 179582981 / 1000000001 | TPS 18324.6 | ETA 12:26:11
Time 02:39:32 | Step 179764865 / 1000000001 | TPS 18188.4 | ETA 12:31:36
Time 02:39:42 | Step 179948278 / 1000000001 | TPS 18341.3 | ETA 12:25:10
Time 02:39:52 | Step 180131386 / 1000000001 | TPS 18310.7 | ETA 12:26:15
Time 02:40:02 | Step 180315301 / 1000000001 | TPS 18391.4 | ETA 12:22:48
Time 02:40:12 | Step 180499232 / 1000000001 | TPS 18393 | ETA 12:22:34
Time 02:40:22 | Step 180682507 / 1000000001 | TPS 18327.5 | ETA 12:25:04
Time 02:40:32 | Step 180866106 / 1000000001 | TPS 18359.8 | ETA 12:23:35
Time 02:40:42 | Step 181048931 / 1000000001 | TPS 18282.4 | ETA 12:26:34
Time 02:40:52 | Step 181232365 / 1000000001 | TPS 18343.4 | ETA 12:23:55
Time 02:41:02 | Step 181415188 / 1000000001 | TPS 18282.3 | ETA 12:26:14
Time 02:41:12 | Step 181597633 / 1000000001 | TPS 18244.4 | ETA 12:27:37
Time 02:41:22 | Step 181780068 / 1000000001 | TPS 18243.3 | ETA 12:27:30
Time 02:41:32 | Step 181962108 / 1000000001 | TPS 18203.9 | ETA 12:28:57
Time 02:41:42 | Step 182143515 / 1000000001 | TPS 18140.7 | ETA 12:31:24
Time 02:41:52 | Step 182326685 / 1000000001 | TPS 18317 | ETA 12:24:00
Time 02:42:02 | Step 182510020 / 1000000001 | TPS 18333.5 | ETA 12:23:10
Time 02:42:12 | Step 182692754 / 1000000001 | TPS 18273.3 | ETA 12:25:26
Time 02:42:22 | Step 182874765 / 1000000001 | TPS 18201.1 | ETA 12:28:14
Time 02:42:32 | Step 183057921 / 1000000001 | TPS 18315.5 | ETA 12:23:23
Time 02:42:42 | Step 183242338 / 1000000001 | TPS 18441.7 | ETA 12:18:08
Time 02:42:52 | Step 183425896 / 1000000001 | TPS 18355.8 | ETA 12:21:25
Time 02:43:02 | Step 183608864 / 1000000001 | TPS 18296.7 | ETA 12:23:39
Time 02:43:12 | Step 183791706 / 1000000001 | TPS 18284.1 | ETA 12:24:00
Time 02:43:22 | Step 183974188 / 1000000001 | TPS 18248.2 | ETA 12:25:18
Time 02:43:32 | Step 184156444 / 1000000001 | TPS 18225.6 | ETA 12:26:03
Time 02:43:42 | Step 184339132 / 1000000001 | TPS 18268.8 | ETA 12:24:07
Time 02:43:52 | Step 184522081 / 1000000001 | TPS 18294.8 | ETA 12:22:54
Time 02:44:02 | Step 184704888 / 1000000001 | TPS 18280.7 | ETA 12:23:18
Time 02:44:12 | Step 184888053 / 1000000001 | TPS 18316.4 | ETA 12:21:41
Time 02:44:22 | Step 185071231 / 1000000001 | TPS 18317.7 | ETA 12:21:28
Time 02:44:32 | Step 185254384 / 1000000001 | TPS 18315.2 | ETA 12:21:24
Time 02:44:42 | Step 185437290 / 1000000001 | TPS 18290.6 | ETA 12:22:14
Time 02:44:52 | Step 185620091 / 1000000001 | TPS 18280.1 | ETA 12:22:30
Time 02:45:02 | Step 185803541 / 1000000001 | TPS 18344.9 | ETA 12:19:42
Time 02:45:12 | Step 185986840 / 1000000001 | TPS 18329.9 | ETA 12:20:09
Time 02:45:22 | Step 186169985 / 1000000001 | TPS 18314.5 | ETA 12:20:36
Time 02:45:32 | Step 186353173 / 1000000001 | TPS 18318.7 | ETA 12:20:16
Time 02:45:42 | Step 186536350 / 1000000001 | TPS 18317.7 | ETA 12:20:08
Time 02:45:52 | Step 186719582 / 1000000001 | TPS 18323.2 | ETA 12:19:45
Time 02:46:02 | Step 186903317 / 1000000001 | TPS 18373.5 | ETA 12:17:33
Time 02:46:12 | Step 187087362 / 1000000001 | TPS 18404.4 | ETA 12:16:09
Time 02:46:22 | Step 187270755 / 1000000001 | TPS 18339.2 | ETA 12:18:36
Time 02:46:32 | Step 187454630 / 1000000001 | TPS 18387.5 | ETA 12:16:30
Time 02:46:42 | Step 187637868 / 1000000001 | TPS 18323.8 | ETA 12:18:53
Time 02:46:52 | Step 187820065 / 1000000001 | TPS 18219.6 | ETA 12:22:57
Time 02:47:02 | Step 188001605 / 1000000001 | TPS 18154 | ETA 12:25:28
Time 02:47:12 | Step 188182887 / 1000000001 | TPS 18128.2 | ETA 12:26:22
Time 02:47:22 | Step 188366253 / 1000000001 | TPS 18336.6 | ETA 12:17:43
Time 02:47:32 | Step 188548810 / 1000000001 | TPS 18255.7 | ETA 12:20:49
Time 02:47:42 | Step 188730970 / 1000000001 | TPS 18216 | ETA 12:22:16
Time 02:47:52 | Step 188912157 / 1000000001 | TPS 18118.7 | ETA 12:26:05
Time 02:48:02 | Step 189092381 / 1000000001 | TPS 18022.3 | ETA 12:29:54
Time 02:48:12 | Step 189275529 / 1000000001 | TPS 18314.8 | ETA 12:17:46
Time 02:48:22 | Step 189458977 / 1000000001 | TPS 18344.8 | ETA 12:16:23
Time 02:48:32 | Step 189642332 / 1000000001 | TPS 18335.4 | ETA 12:16:36
Time 02:48:42 | Step 189825513 / 1000000001 | TPS 18318 | ETA 12:17:08
Time 02:48:52 | Step 190007856 / 1000000001 | TPS 18234.2 | ETA 12:20:21
Time 02:49:02 | Step 190190253 / 1000000001 | TPS 18239.7 | ETA 12:19:58
Time 02:49:12 | Step 190372721 / 1000000001 | TPS 18246.8 | ETA 12:19:31
Time 02:49:22 | Step 190555706 / 1000000001 | TPS 18298.4 | ETA 12:17:15
[...]
Time 14:18:34 | Step 950627116 / 1000000001 | TPS 18406.9 | ETA 00:44:42
Time 14:18:44 | Step 950811624 / 1000000001 | TPS 18450.8 | ETA 00:44:25
Time 14:18:54 | Step 950995852 / 1000000001 | TPS 18422.8 | ETA 00:44:19
Time 14:19:04 | Step 951180027 / 1000000001 | TPS 18417.4 | ETA 00:44:10
Time 14:19:14 | Step 951364401 / 1000000001 | TPS 18437.4 | ETA 00:43:57
Time 14:19:24 | Step 951548682 / 1000000001 | TPS 18428.1 | ETA 00:43:49
Time 14:19:34 | Step 951732978 / 1000000001 | TPS 18429.5 | ETA 00:43:39
Time 14:19:44 | Step 951917634 / 1000000001 | TPS 18465.6 | ETA 00:43:23
Time 14:19:54 | Step 952101792 / 1000000001 | TPS 18415.8 | ETA 00:43:20
Time 14:20:04 | Step 952286089 / 1000000001 | TPS 18429.6 | ETA 00:43:08
Time 14:20:14 | Step 952470810 / 1000000001 | TPS 18472.1 | ETA 00:42:53
Time 14:20:24 | Step 952654914 / 1000000001 | TPS 18410.4 | ETA 00:42:51
Time 14:20:34 | Step 952839334 / 1000000001 | TPS 18442 | ETA 00:42:37
Time 14:20:44 | Step 953022885 / 1000000001 | TPS 18355 | ETA 00:42:39
Time 14:20:54 | Step 953207269 / 1000000001 | TPS 18438.3 | ETA 00:42:17
Time 14:21:04 | Step 953391698 / 1000000001 | TPS 18442.9 | ETA 00:42:07
Time 14:21:14 | Step 953576245 / 1000000001 | TPS 18454.7 | ETA 00:41:55
Time 14:21:24 | Step 953760901 / 1000000001 | TPS 18465.4 | ETA 00:41:44
Time 14:21:34 | Step 953945378 / 1000000001 | TPS 18447.7 | ETA 00:41:36
Time 14:21:44 | Step 954129805 / 1000000001 | TPS 18442.7 | ETA 00:41:27
Time 14:21:54 | Step 954314760 / 1000000001 | TPS 18495.3 | ETA 00:41:10
Time 14:22:04 | Step 954499293 / 1000000001 | TPS 18453.2 | ETA 00:41:05
Time 14:22:14 | Step 954683271 / 1000000001 | TPS 18397.7 | ETA 00:41:03
Time 14:22:24 | Step 954867397 / 1000000001 | TPS 18412.5 | ETA 00:40:51
Time 14:22:34 | Step 955051953 / 1000000001 | TPS 18455.5 | ETA 00:40:35
Time 14:22:44 | Step 955236747 / 1000000001 | TPS 18479.4 | ETA 00:40:22
Time 14:22:54 | Step 955421083 / 1000000001 | TPS 18433.5 | ETA 00:40:18
Time 14:23:04 | Step 955605887 / 1000000001 | TPS 18480.4 | ETA 00:40:02
Time 14:23:14 | Step 955790205 / 1000000001 | TPS 18431.7 | ETA 00:39:58
Time 14:23:24 | Step 955974434 / 1000000001 | TPS 18422.8 | ETA 00:39:49
Time 14:23:34 | Step 956158361 / 1000000001 | TPS 18392.7 | ETA 00:39:43
Time 14:23:44 | Step 956342696 / 1000000001 | TPS 18433.4 | ETA 00:39:28
Time 14:23:54 | Step 956526869 / 1000000001 | TPS 18417.3 | ETA 00:39:20
Time 14:24:04 | Step 956710953 / 1000000001 | TPS 18408.2 | ETA 00:39:11
Time 14:24:14 | Step 956894658 / 1000000001 | TPS 18370.4 | ETA 00:39:06
Time 14:24:24 | Step 957078748 / 1000000001 | TPS 18409 | ETA 00:38:51
Time 14:24:34 | Step 957261990 / 1000000001 | TPS 18324.2 | ETA 00:38:52
Time 14:24:44 | Step 957445716 / 1000000001 | TPS 18372.6 | ETA 00:38:36
Time 14:24:54 | Step 957630298 / 1000000001 | TPS 18458.2 | ETA 00:38:15
Time 14:25:04 | Step 957814429 / 1000000001 | TPS 18413 | ETA 00:38:11
Time 14:25:14 | Step 957998828 / 1000000001 | TPS 18439.9 | ETA 00:37:57
Time 14:25:24 | Step 958183076 / 1000000001 | TPS 18424.8 | ETA 00:37:49
Time 14:25:34 | Step 958367624 / 1000000001 | TPS 18454.6 | ETA 00:37:35
Time 14:25:44 | Step 958552522 / 1000000001 | TPS 18489.7 | ETA 00:37:21
Time 14:25:54 | Step 958737331 / 1000000001 | TPS 18480.9 | ETA 00:37:12
Time 14:26:04 | Step 958922393 / 1000000001 | TPS 18506.2 | ETA 00:36:59
Time 14:26:14 | Step 959106686 / 1000000001 | TPS 18429.3 | ETA 00:36:58
Time 14:26:24 | Step 959291265 / 1000000001 | TPS 18457.9 | ETA 00:36:45
Time 14:26:34 | Step 959476060 / 1000000001 | TPS 18479.5 | ETA 00:36:32
Time 14:26:44 | Step 959660753 / 1000000001 | TPS 18469.3 | ETA 00:36:24
Time 14:26:54 | Step 959845466 / 1000000001 | TPS 18471.2 | ETA 00:36:13
Time 14:27:04 | Step 960029191 / 1000000001 | TPS 18372.5 | ETA 00:36:15
Time 14:27:14 | Step 960213682 / 1000000001 | TPS 18448.9 | ETA 00:35:56
Time 14:27:24 | Step 960397774 / 1000000001 | TPS 18409.2 | ETA 00:35:51
Time 14:27:34 | Step 960582294 / 1000000001 | TPS 18452 | ETA 00:35:36
Time 14:27:44 | Step 960767153 / 1000000001 | TPS 18485.8 | ETA 00:35:22
Time 14:27:54 | Step 960951821 / 1000000001 | TPS 18466.8 | ETA 00:35:14
Time 14:28:04 | Step 961135724 / 1000000001 | TPS 18390.2 | ETA 00:35:13
Time 14:28:14 | Step 961319789 / 1000000001 | TPS 18406.4 | ETA 00:35:01
Time 14:28:24 | Step 961504424 / 1000000001 | TPS 18463.4 | ETA 00:34:44
Time 14:28:34 | Step 961689009 / 1000000001 | TPS 18458.4 | ETA 00:34:35
Time 14:28:44 | Step 961873918 / 1000000001 | TPS 18490.8 | ETA 00:34:21
Time 14:28:54 | Step 962058520 / 1000000001 | TPS 18460.1 | ETA 00:34:15
Time 14:29:04 | Step 962242935 / 1000000001 | TPS 18441.5 | ETA 00:34:07
Time 14:29:14 | Step 962427933 / 1000000001 | TPS 18499.7 | ETA 00:33:50
Time 14:29:24 | Step 962612350 / 1000000001 | TPS 18441.6 | ETA 00:33:47
Time 14:29:34 | Step 962796451 / 1000000001 | TPS 18410 | ETA 00:33:40
Time 14:29:44 | Step 962980733 / 1000000001 | TPS 18428.1 | ETA 00:33:28
Time 14:29:54 | Step 963164175 / 1000000001 | TPS 18344.1 | ETA 00:33:28
Time 14:30:04 | Step 963348243 / 1000000001 | TPS 18406.8 | ETA 00:33:11
Time 14:30:14 | Step 963532492 / 1000000001 | TPS 18424.9 | ETA 00:32:59
Time 14:30:24 | Step 963715607 / 1000000001 | TPS 18311.4 | ETA 00:33:01
Time 14:30:34 | Step 963899169 / 1000000001 | TPS 18356.2 | ETA 00:32:46
Time 14:30:44 | Step 964083996 / 1000000001 | TPS 18482.7 | ETA 00:32:23
Time 14:30:54 | Step 964268581 / 1000000001 | TPS 18458.4 | ETA 00:32:15
Time 14:31:04 | Step 964453228 / 1000000001 | TPS 18464.7 | ETA 00:32:05
Time 14:31:14 | Step 964637615 / 1000000001 | TPS 18438.7 | ETA 00:31:57
Time 14:31:24 | Step 964822056 / 1000000001 | TPS 18444 | ETA 00:31:47
Time 14:31:34 | Step 965006458 / 1000000001 | TPS 18440.2 | ETA 00:31:37
Time 14:31:44 | Step 965190150 / 1000000001 | TPS 18369.1 | ETA 00:31:35
Time 14:31:54 | Step 965374523 / 1000000001 | TPS 18437.2 | ETA 00:31:18
Time 14:32:04 | Step 965558840 / 1000000001 | TPS 18431.6 | ETA 00:31:08
Time 14:32:14 | Step 965743170 / 1000000001 | TPS 18432.9 | ETA 00:30:58
Time 14:32:24 | Step 965927232 / 1000000001 | TPS 18406.1 | ETA 00:30:51
Time 14:32:34 | Step 966111024 / 1000000001 | TPS 18379.1 | ETA 00:30:43
Time 14:32:44 | Step 966295394 / 1000000001 | TPS 18437 | ETA 00:30:28
Time 14:32:54 | Step 966480265 / 1000000001 | TPS 18487 | ETA 00:30:13
Time 14:33:04 | Step 966664803 / 1000000001 | TPS 18453.8 | ETA 00:30:06
Time 14:33:14 | Step 966848965 / 1000000001 | TPS 18416.1 | ETA 00:30:00
Time 14:33:24 | Step 967033232 / 1000000001 | TPS 18426.6 | ETA 00:29:49
Time 14:33:34 | Step 967217745 / 1000000001 | TPS 18451.1 | ETA 00:29:36
Time 14:33:44 | Step 967402485 / 1000000001 | TPS 18474 | ETA 00:29:24
Time 14:33:54 | Step 967586664 / 1000000001 | TPS 18417.8 | ETA 00:29:19
Time 14:34:04 | Step 967770922 / 1000000001 | TPS 18425.8 | ETA 00:29:09
Time 14:34:14 | Step 967955518 / 1000000001 | TPS 18459.5 | ETA 00:28:55
Time 14:34:24 | Step 968139520 / 1000000001 | TPS 18400.2 | ETA 00:28:51
Time 14:34:34 | Step 968322219 / 1000000001 | TPS 18269.9 | ETA 00:28:53
Time 14:34:44 | Step 968506148 / 1000000001 | TPS 18392.8 | ETA 00:28:32
Time 14:34:54 | Step 968689636 / 1000000001 | TPS 18348.7 | ETA 00:28:26
Time 14:35:04 | Step 968873086 / 1000000001 | TPS 18344.9 | ETA 00:28:16
Time 14:35:14 | Step 969053923 / 1000000001 | TPS 18083.7 | ETA 00:28:31
Time 14:35:24 | Step 969237365 / 1000000001 | TPS 18344.2 | ETA 00:27:56
Time 14:35:34 | Step 969421502 / 1000000001 | TPS 18413.6 | ETA 00:27:40
Time 14:35:44 | Step 969606264 / 1000000001 | TPS 18476.1 | ETA 00:27:25
Time 14:35:54 | Step 969790277 / 1000000001 | TPS 18401.2 | ETA 00:27:21
Time 14:36:04 | Step 969974481 / 1000000001 | TPS 18420.4 | ETA 00:27:10
Time 14:36:14 | Step 970158761 / 1000000001 | TPS 18427.9 | ETA 00:26:59
Time 14:36:24 | Step 970343563 / 1000000001 | TPS 18480.1 | ETA 00:26:44
Time 14:36:34 | Step 970528351 / 1000000001 | TPS 18478.8 | ETA 00:26:34
Time 14:36:44 | Step 970713046 / 1000000001 | TPS 18469.4 | ETA 00:26:25
Time 14:36:54 | Step 970896234 / 1000000001 | TPS 18318.7 | ETA 00:26:28
Time 14:37:04 | Step 971078847 / 1000000001 | TPS 18261.3 | ETA 00:26:23
Time 14:37:14 | Step 971263081 / 1000000001 | TPS 18423.3 | ETA 00:25:59
Time 14:37:24 | Step 971446676 / 1000000001 | TPS 18359.5 | ETA 00:25:55
Time 14:37:34 | Step 971630677 / 1000000001 | TPS 18400 | ETA 00:25:41
Time 14:37:44 | Step 971814804 / 1000000001 | TPS 18412.7 | ETA 00:25:30
Time 14:37:54 | Step 971998971 / 1000000001 | TPS 18416.7 | ETA 00:25:20
Time 14:38:04 | Step 972182755 / 1000000001 | TPS 18378.3 | ETA 00:25:13
Time 14:38:14 | Step 972366974 / 1000000001 | TPS 18421.9 | ETA 00:25:00
Time 14:38:24 | Step 972551227 / 1000000001 | TPS 18425.3 | ETA 00:24:49
Time 14:38:34 | Step 972735110 / 1000000001 | TPS 18388.2 | ETA 00:24:42
Time 14:38:44 | Step 972919120 / 1000000001 | TPS 18401 | ETA 00:24:31
Time 14:38:54 | Step 973102071 / 1000000001 | TPS 18295.1 | ETA 00:24:30
Time 14:39:04 | Step 973284295 / 1000000001 | TPS 18222.4 | ETA 00:24:26
Time 14:39:14 | Step 973467813 / 1000000001 | TPS 18351.7 | ETA 00:24:05
Time 14:39:24 | Step 973652306 / 1000000001 | TPS 18449.3 | ETA 00:23:48
Time 14:39:34 | Step 973836425 / 1000000001 | TPS 18411.9 | ETA 00:23:41
Time 14:39:44 | Step 974021137 / 1000000001 | TPS 18471.2 | ETA 00:23:26
Time 14:39:54 | Step 974205309 / 1000000001 | TPS 18417 | ETA 00:23:20
Time 14:40:04 | Step 974388880 / 1000000001 | TPS 18357 | ETA 00:23:15
Time 14:40:14 | Step 974573222 / 1000000001 | TPS 18434 | ETA 00:22:59
Time 14:40:24 | Step 974757908 / 1000000001 | TPS 18468.6 | ETA 00:22:46
Time 14:40:34 | Step 974942301 / 1000000001 | TPS 18439.2 | ETA 00:22:38
Time 14:40:44 | Step 975126295 / 1000000001 | TPS 18399.4 | ETA 00:22:31
Time 14:40:54 | Step 975310630 / 1000000001 | TPS 18433.5 | ETA 00:22:19
Time 14:41:04 | Step 975495100 / 1000000001 | TPS 18447 | ETA 00:22:08
Time 14:41:14 | Step 975678983 / 1000000001 | TPS 18388.2 | ETA 00:22:02
Time 14:41:24 | Step 975862430 / 1000000001 | TPS 18344.7 | ETA 00:21:55
Time 14:41:34 | Step 976046833 / 1000000001 | TPS 18440.2 | ETA 00:21:38
Time 14:41:44 | Step 976231020 / 1000000001 | TPS 18418.6 | ETA 00:21:30
Time 14:41:54 | Step 976415051 / 1000000001 | TPS 18403.1 | ETA 00:21:21
Time 14:42:04 | Step 976599340 / 1000000001 | TPS 18428.8 | ETA 00:21:09
Time 14:42:14 | Step 976783814 / 1000000001 | TPS 18447.4 | ETA 00:20:58
Time 14:42:24 | Step 976968227 / 1000000001 | TPS 18441.3 | ETA 00:20:48
Time 14:42:34 | Step 977152878 / 1000000001 | TPS 18465 | ETA 00:20:37
Time 14:42:44 | Step 977336536 / 1000000001 | TPS 18365.7 | ETA 00:20:34
Time 14:42:54 | Step 977521385 / 1000000001 | TPS 18484.9 | ETA 00:20:16
Time 14:43:04 | Step 977706138 / 1000000001 | TPS 18475.2 | ETA 00:20:06
Time 14:43:14 | Step 977890506 / 1000000001 | TPS 18436.8 | ETA 00:19:59
Time 14:43:24 | Step 978074628 / 1000000001 | TPS 18412.1 | ETA 00:19:50
Time 14:43:34 | Step 978259024 / 1000000001 | TPS 18439.6 | ETA 00:19:39
Time 14:43:44 | Step 978443369 / 1000000001 | TPS 18434.4 | ETA 00:19:29
Time 14:43:54 | Step 978628201 / 1000000001 | TPS 18483.2 | ETA 00:19:16
Time 14:44:04 | Step 978812595 / 1000000001 | TPS 18439.4 | ETA 00:19:09
Time 14:44:14 | Step 978996823 / 1000000001 | TPS 18422.7 | ETA 00:19:00
Time 14:44:24 | Step 979181001 / 1000000001 | TPS 18417.8 | ETA 00:18:50
Time 14:44:34 | Step 979365168 / 1000000001 | TPS 18416.7 | ETA 00:18:40
Time 14:44:44 | Step 979549151 / 1000000001 | TPS 18398.3 | ETA 00:18:31
Time 14:44:54 | Step 979733545 / 1000000001 | TPS 18439.3 | ETA 00:18:19
Time 14:45:04 | Step 979917803 / 1000000001 | TPS 18425.8 | ETA 00:18:09
Time 14:45:14 | Step 980102495 / 1000000001 | TPS 18469.2 | ETA 00:17:57
Time 14:45:24 | Step 980286479 / 1000000001 | TPS 18398.4 | ETA 00:17:51
Time 14:45:34 | Step 980469999 / 1000000001 | TPS 18352 | ETA 00:17:44
Time 14:45:44 | Step 980654451 / 1000000001 | TPS 18445.1 | ETA 00:17:28
Time 14:45:54 | Step 980838206 / 1000000001 | TPS 18375.4 | ETA 00:17:22
Time 14:46:04 | Step 981022805 / 1000000001 | TPS 18459.8 | ETA 00:17:08
Time 14:46:14 | Step 981205437 / 1000000001 | TPS 18263.2 | ETA 00:17:09
Time 14:46:24 | Step 981389753 / 1000000001 | TPS 18431.6 | ETA 00:16:49
Time 14:46:34 | Step 981573192 / 1000000001 | TPS 18343.9 | ETA 00:16:44
Time 14:46:44 | Step 981756480 / 1000000001 | TPS 18328.8 | ETA 00:16:35
Time 14:46:54 | Step 981940937 / 1000000001 | TPS 18445.5 | ETA 00:16:19
Time 14:47:04 | Step 982125622 / 1000000001 | TPS 18468.5 | ETA 00:16:07
Time 14:47:14 | Step 982310137 / 1000000001 | TPS 18451.3 | ETA 00:15:58
Time 14:47:24 | Step 982494086 / 1000000001 | TPS 18394.9 | ETA 00:15:51
Time 14:47:34 | Step 982677939 / 1000000001 | TPS 18385.3 | ETA 00:15:42
Time 14:47:44 | Step 982861346 / 1000000001 | TPS 18340.7 | ETA 00:15:34
Time 14:47:54 | Step 983045558 / 1000000001 | TPS 18421.2 | ETA 00:15:20
Time 14:48:04 | Step 983229724 / 1000000001 | TPS 18416.6 | ETA 00:15:10
Time 14:48:14 | Step 983413825 / 1000000001 | TPS 18410 | ETA 00:15:00
Time 14:48:24 | Step 983598139 / 1000000001 | TPS 18431.3 | ETA 00:14:49
Time 14:48:34 | Step 983781729 / 1000000001 | TPS 18359 | ETA 00:14:43
Time 14:48:44 | Step 983964103 / 1000000001 | TPS 18237.3 | ETA 00:14:39
Time 14:48:54 | Step 984147468 / 1000000001 | TPS 18336.5 | ETA 00:14:24
Time 14:49:04 | Step 984330451 / 1000000001 | TPS 18298.3 | ETA 00:14:16
Time 14:49:14 | Step 984514655 / 1000000001 | TPS 18420.3 | ETA 00:14:00
Time 14:49:24 | Step 984698795 / 1000000001 | TPS 18413.9 | ETA 00:13:50
Time 14:49:34 | Step 984882194 / 1000000001 | TPS 18339.8 | ETA 00:13:44
Time 14:49:44 | Step 985066194 / 1000000001 | TPS 18399.9 | ETA 00:13:31
Time 14:49:54 | Step 985250123 / 1000000001 | TPS 18392.9 | ETA 00:13:21
Time 14:50:04 | Step 985434063 / 1000000001 | TPS 18393.9 | ETA 00:13:11
Time 14:50:14 | Step 985617788 / 1000000001 | TPS 18372.4 | ETA 00:13:02
Time 14:50:24 | Step 985800484 / 1000000001 | TPS 18269.6 | ETA 00:12:57
Time 14:50:34 | Step 985982920 / 1000000001 | TPS 18243.6 | ETA 00:12:48
Time 14:50:44 | Step 986165333 / 1000000001 | TPS 18241.2 | ETA 00:12:38
Time 14:50:54 | Step 986348390 / 1000000001 | TPS 18305.7 | ETA 00:12:25
Time 14:51:04 | Step 986532958 / 1000000001 | TPS 18456.7 | ETA 00:12:09
Time 14:51:14 | Step 986716937 / 1000000001 | TPS 18397.9 | ETA 00:12:01
Time 14:51:24 | Step 986901567 / 1000000001 | TPS 18463 | ETA 00:11:49
Time 14:51:34 | Step 987086241 / 1000000001 | TPS 18467.4 | ETA 00:11:39
Time 14:51:44 | Step 987270683 / 1000000001 | TPS 18444.1 | ETA 00:11:30
Time 14:51:54 | Step 987454958 / 1000000001 | TPS 18427.4 | ETA 00:11:20
Time 14:52:04 | Step 987639394 / 1000000001 | TPS 18443.5 | ETA 00:11:10
Time 14:52:14 | Step 987823867 / 1000000001 | TPS 18447.3 | ETA 00:11:00
Time 14:52:24 | Step 988008097 / 1000000001 | TPS 18422.9 | ETA 00:10:50
Time 14:52:34 | Step 988190400 / 1000000001 | TPS 18230.3 | ETA 00:10:47
Time 14:52:44 | Step 988375053 / 1000000001 | TPS 18465.3 | ETA 00:10:29
Time 14:52:54 | Step 988559714 / 1000000001 | TPS 18466.1 | ETA 00:10:19
Time 14:53:04 | Step 988744859 / 1000000001 | TPS 18514.3 | ETA 00:10:07
Time 14:53:14 | Step 988928972 / 1000000001 | TPS 18411.3 | ETA 00:10:01
Time 14:53:24 | Step 989113002 / 1000000001 | TPS 18402.9 | ETA 00:09:51
Time 14:53:34 | Step 989297032 / 1000000001 | TPS 18403 | ETA 00:09:41
Time 14:53:44 | Step 989479332 / 1000000001 | TPS 18230 | ETA 00:09:37
Time 14:53:54 | Step 989662682 / 1000000001 | TPS 18334.9 | ETA 00:09:23
Time 14:54:04 | Step 989847098 / 1000000001 | TPS 18441.5 | ETA 00:09:10
Time 14:54:14 | Step 990030898 / 1000000001 | TPS 18379.9 | ETA 00:09:02
Time 14:54:24 | Step 990213701 / 1000000001 | TPS 18280.2 | ETA 00:08:55
Time 14:54:34 | Step 990397112 / 1000000001 | TPS 18341 | ETA 00:08:43
Time 14:54:44 | Step 990581351 / 1000000001 | TPS 18423.9 | ETA 00:08:31
Time 14:54:54 | Step 990766119 / 1000000001 | TPS 18476.7 | ETA 00:08:19
Time 14:55:04 | Step 990950460 / 1000000001 | TPS 18434 | ETA 00:08:10
Time 14:55:14 | Step 991134901 / 1000000001 | TPS 18443.7 | ETA 00:08:00
Time 14:55:24 | Step 991318723 / 1000000001 | TPS 18382 | ETA 00:07:52
Time 14:55:34 | Step 991501995 / 1000000001 | TPS 18327.1 | ETA 00:07:43
Time 14:55:44 | Step 991686667 / 1000000001 | TPS 18467.2 | ETA 00:07:30
Time 14:55:54 | Step 991870936 / 1000000001 | TPS 18426.9 | ETA 00:07:21
Time 14:56:04 | Step 992054992 / 1000000001 | TPS 18405.6 | ETA 00:07:11
Time 14:56:14 | Step 992238412 / 1000000001 | TPS 18342 | ETA 00:07:03
Time 14:56:24 | Step 992422667 / 1000000001 | TPS 18425.5 | ETA 00:06:51
Time 14:56:34 | Step 992607501 / 1000000001 | TPS 18483.3 | ETA 00:06:39
Time 14:56:44 | Step 992791976 / 1000000001 | TPS 18447.5 | ETA 00:06:30
Time 14:56:54 | Step 992976139 / 1000000001 | TPS 18416.3 | ETA 00:06:21
Time 14:57:04 | Step 993160094 / 1000000001 | TPS 18395.5 | ETA 00:06:11
Time 14:57:14 | Step 993344824 / 1000000001 | TPS 18472.9 | ETA 00:06:00
Time 14:57:24 | Step 993529558 / 1000000001 | TPS 18473.4 | ETA 00:05:50
Time 14:57:34 | Step 993714088 / 1000000001 | TPS 18453 | ETA 00:05:40
Time 14:57:44 | Step 993898685 / 1000000001 | TPS 18459.6 | ETA 00:05:30
Time 14:57:54 | Step 994083268 / 1000000001 | TPS 18458.3 | ETA 00:05:20
Time 14:58:04 | Step 994267955 / 1000000001 | TPS 18468.7 | ETA 00:05:10
Time 14:58:14 | Step 994452231 / 1000000001 | TPS 18427.5 | ETA 00:05:01
Time 14:58:24 | Step 994636474 / 1000000001 | TPS 18424.3 | ETA 00:04:51
Time 14:58:34 | Step 994820770 / 1000000001 | TPS 18429.5 | ETA 00:04:41
Time 14:58:44 | Step 995004914 / 1000000001 | TPS 18414.4 | ETA 00:04:31
Time 14:58:54 | Step 995188769 / 1000000001 | TPS 18385.5 | ETA 00:04:21
Time 14:59:04 | Step 995372161 / 1000000001 | TPS 18339.2 | ETA 00:04:12
Time 14:59:14 | Step 995554712 / 1000000001 | TPS 18255.1 | ETA 00:04:03
Time 14:59:24 | Step 995738826 / 1000000001 | TPS 18411.3 | ETA 00:03:51
Time 14:59:34 | Step 995923579 / 1000000001 | TPS 18475.3 | ETA 00:03:40
Time 14:59:44 | Step 996106586 / 1000000001 | TPS 18300.6 | ETA 00:03:32
Time 14:59:54 | Step 996290119 / 1000000001 | TPS 18353.1 | ETA 00:03:22
Time 15:00:04 | Step 996474465 / 1000000001 | TPS 18434.5 | ETA 00:03:11
Time 15:00:14 | Step 996658236 / 1000000001 | TPS 18377 | ETA 00:03:01
Time 15:00:24 | Step 996842542 / 1000000001 | TPS 18430.6 | ETA 00:02:51
Time 15:00:34 | Step 997027163 / 1000000001 | TPS 18462.1 | ETA 00:02:41
Time 15:00:44 | Step 997211058 / 1000000001 | TPS 18389.4 | ETA 00:02:31
Time 15:00:54 | Step 997394877 / 1000000001 | TPS 18381.8 | ETA 00:02:21
Time 15:01:04 | Step 997578765 / 1000000001 | TPS 18388.8 | ETA 00:02:11
Time 15:01:14 | Step 997763304 / 1000000001 | TPS 18453.9 | ETA 00:02:01
Time 15:01:24 | Step 997947978 / 1000000001 | TPS 18467.3 | ETA 00:01:51
Time 15:01:34 | Step 998132109 / 1000000001 | TPS 18413.1 | ETA 00:01:41
Time 15:01:44 | Step 998316387 / 1000000001 | TPS 18427.7 | ETA 00:01:31
Time 15:01:54 | Step 998500800 / 1000000001 | TPS 18441.3 | ETA 00:01:21
Time 15:02:04 | Step 998685225 / 1000000001 | TPS 18442.5 | ETA 00:01:11
Time 15:02:14 | Step 998869438 / 1000000001 | TPS 18421.2 | ETA 00:01:01
Time 15:02:24 | Step 999053025 / 1000000001 | TPS 18358.6 | ETA 00:00:51
Time 15:02:34 | Step 999236944 / 1000000001 | TPS 18391.9 | ETA 00:00:41
Time 15:02:44 | Step 999421612 / 1000000001 | TPS 18466.7 | ETA 00:00:31
Time 15:02:54 | Step 999605415 / 1000000001 | TPS 18380.3 | ETA 00:00:21
Time 15:03:04 | Step 999789760 / 1000000001 | TPS 18434.4 | ETA 00:00:11
Time 15:03:14 | Step 999971864 / 1000000001 | TPS 18210.3 | ETA 00:00:01
Time 15:03:15 | Step 1000000001 / 1000000001 | TPS 18350 | ETA 00:00:00
Average TPS: 18452.5
---------
-- Neighborlist stats:
120424934 normal updates / 3333334 forced updates / 0 dangerous updates
n_neigh_min: 0 / n_neigh_max: 14 / n_neigh_avg: 11.8246
shortest rebuild period: 5
-- Cell list stats:
Dimension: 44, 44, 44
n_min    : 0 / n_max: 7 / n_avg: 0.0792402
** run complete **
