HOOMD-blue 2.9.6 CUDA (11.1) SINGLE SSE SSE2 
Compiled: 05/10/21
Copyright (c) 2009-2019 The Regents of the University of Michigan.
-----
You are using HOOMD-blue. Please cite the following:
* J A Anderson, J Glaser, and S C Glotzer. "HOOMD-blue: A Python package for
  high-performance molecular dynamics and hard particle Monte Carlo
  simulations", Computational Materials Science 173 (2020) 109363
-----
HOOMD-blue is running on the following GPU(s):
 [0] NVIDIA H100 80GB HBM3 132 SM_9.0 @ 1.98 GHz, 81007 MiB DRAM, MNG
Running on the GPU
Charges (in mV) are:
[-54.0, 44.0]
[95.0, 105.0]
Particle types: ['N', 'P']
Radius of N, P and ionic radii(s):  [95.0, 105.0, 99.75]
radiusN: 95.0
radiusP: 105.0
Electrostatic prefactors are:  {('N', 'N'): 299.83507046393714, ('N', 'P'): -256.52556028581284, ('P', 'P'): 220.02192305215914}
Steric prefactors are:  {('N', 'N'): 368.3741785809289, ('N', 'P'): 387.76229324308304, ('P', 'P'): 407.15040790523716}
Lattice_type:  sc
Lattice site is: P
Putting satellite particles at a distance of 286.000000 from center particles
num_satellite_per_center: 1
snapshot_creation.py:075  |      center_unit_cell = lattice(a=lattice_spacing*2*radius_latticesite)
center_in_uc: 1
satellite_in_uc: 1
Total number of particles in each unit cell: 2
Total lattice spacing: 885.78
Setting mass N: 0.740633 (mass P: 1.000000)
['P', 'N']
Total number of lattice sites: 6750
[[-6200.45996094 -6200.45996094 -6200.45996094]
 [-6200.45996094 -5914.45996094 -6200.45996094]
 [-6200.45996094 -6200.45996094 -5314.68017578]
 ...
 [ 6200.45947266  6486.46044922  5314.68017578]
 [ 6200.45947266  6200.45947266  6200.45947266]
 [ 6200.45947266  6486.46044922  6200.45947266]]
Seed positions:
None
snapshot_creation.py:172  |      system=hoomd.init.read_snapshot(snapshot)
notice(2): Group "all" created containing 6750 particles
Box size:
Box: Lx=13286.7001953125 Ly=13286.7001953125 Lz=13286.7001953125 xy=0.0 xz=0.0 yz=0.0 dimensions=3
max_x,max_y,max_z
6643.35009765625 6643.35009765625 6643.35009765625
snapshot_creation.py:183  |          hoomd.update.box_resize(Lx = 2.*max_x+8*max_radius, Ly = 2.*max_y+8*max_radius, Lz=2.*max_z+8*max_radius, period=None,scale_particles=False)
Updated box size in presence of closed walls:
Box: Lx=14126.7001953125 Ly=14126.7001953125 Lz=14126.7001953125 xy=0.0 xz=0.0 yz=0.0 dimensions=3
Number of particles in system before adding any seed crystal:  6750
Removing lattice particles that overlap with particles of the seed crystal.........
add_interactions.py:006  |  nl = hoomd.md.nlist.cell()
add_interactions.py:007  |  nl.reset_exclusions(exclusions = ['1-2', 'body','constraint'])
notice(2): -- Neighborlist exclusion statistics -- :
notice(2): Particles with 0 exclusions             : 6750
notice(2): Neighbors included by diameter          : no
notice(2): Neighbors excluded when in the same body: no
Turning on closed walls along x/y/z with max_z: 7063.35009765625
add_interactions.py:032  |      wall_force = hoomd.md.wall.slj(wall_group,r_cut=max_radius*(2.0**(1.0/6.0)))
notice(2): Notice: slj set d_max=210.0
add_interactions.py:033  |      wall_force.force_coeff.set('N',epsilon=1,sigma=radiusN,alpha=0,r_cut=radiusN*(2.0**(1.0/6.0)))
add_interactions.py:034  |      wall_force.force_coeff.set('P',epsilon=1,sigma=radiusP,alpha=0,r_cut=radiusP*(2.0**(1.0/6.0)))
add_interactions.py:057  |  table = hoomd.md.pair.table(width=5000,nlist=nl)
*******************************************************************************************************************************************************************************
Setting potential for pair ('N', 'N') with radius_sum 190.0
add_interactions.py:080  |          table.pair_coeff.set(typei,typej, func=screened_potential_shifted_force,rmin=1.00005*radius_sum, rmax=potential_range,coeff=dict(radius_sum=radius_sum, steric_prefactor=steric_prefactors[key],electrostatic_prefactor=electrostatic_prefactors[key],H=sum_brush_lengths,d=debye_length),)
*******************************************************************************************************************************************************************************
Setting potential for pair ('N', 'P') with radius_sum 200.0
add_interactions.py:080  |          table.pair_coeff.set(typei,typej, func=screened_potential_shifted_force,rmin=1.00005*radius_sum, rmax=potential_range,coeff=dict(radius_sum=radius_sum, steric_prefactor=steric_prefactors[key],electrostatic_prefactor=electrostatic_prefactors[key],H=sum_brush_lengths,d=debye_length),)
*******************************************************************************************************************************************************************************
Setting potential for pair ('P', 'P') with radius_sum 210.0
add_interactions.py:080  |          table.pair_coeff.set(typei,typej, func=screened_potential_shifted_force,rmin=1.00005*radius_sum, rmax=potential_range,coeff=dict(radius_sum=radius_sum, steric_prefactor=steric_prefactors[key],electrostatic_prefactor=electrostatic_prefactors[key],H=sum_brush_lengths,d=debye_length),)
i,j,key,potential_min, potential_min_location
(0, 0, ('N', 'N'), 0.0, 465.5860000000565)
(0, 1, ('N', 'P'), -68.52053795384177, 217.26105759999652)
(1, 1, ('P', 'P'), 1.6940658945086007e-21, 485.5859999999738)
run_dlvo_spheres_metal.py:011  |  all = hoomd.group.all()
run_dlvo_spheres_metal.py:000  |  from add_interactions import *

if temperature.find(':')>0:
    temp_list = np.array( temperature.split(':') ,dtype=float)
    assert len(temp_list)%2==0 and len(temp_list)>=0,"must give an even number of temperature arguments"
    temp_list = [tuple(x) for x in temp_list.reshape((-1,2))]
    temperature = hoomd.variant.linear_interp(points=temp_list)
else:
    temperature = float(temperature)

all = hoomd.group.all()


hoomd.analyze.log(filename=outputlogfile,
mode: langevin
run_dlvo_spheres_metal.py:029  |      hoomd.md.integrate.mode_standard(dt=dt)
run_dlvo_spheres_metal.py:030  |      ld=hoomd.md.integrate.langevin(group=all, kT=temperature, seed=seed)
notice(2): integrate.langevin/bd is using specified gamma values
Using gamma value as: 0.001
run_dlvo_spheres_metal.py:033  |          ld.set_gamma(particle_type,gamma)
run_dlvo_spheres_metal.py:033  |          ld.set_gamma(particle_type,gamma)
run_dlvo_spheres_metal.py:057  |  hoomd.dump.gsd(outputgsdfile, period=dump_frequency, group=all, overwrite=True,dynamic=['attribute','momentum','topology'])
run_dlvo_spheres_metal.py:058  |  hoomd.run(nsteps)
** starting run **
Time 00:00:11 | Step 206747 / 1000000001 | TPS 20674.7 | ETA 13:25:58
Time 00:00:21 | Step 416532 / 1000000001 | TPS 20978.5 | ETA 13:14:08
Time 00:00:31 | Step 627240 / 1000000001 | TPS 21070.8 | ETA 13:10:29
Time 00:00:41 | Step 836610 / 1000000001 | TPS 20937 | ETA 13:15:22
Time 00:00:51 | Step 1025919 / 1000000001 | TPS 18930.9 | ETA 14:39:29
Time 00:01:01 | Step 1204034 / 1000000001 | TPS 17811.4 | ETA 15:34:36
Time 00:01:11 | Step 1378036 / 1000000001 | TPS 17400.2 | ETA 15:56:31
Time 00:01:21 | Step 1550890 / 1000000001 | TPS 17285.3 | ETA 16:02:42
Time 00:01:31 | Step 1720208 / 1000000001 | TPS 16931.8 | ETA 16:22:38
Time 00:01:41 | Step 1888207 / 1000000001 | TPS 16799.9 | ETA 16:30:11
Time 00:01:51 | Step 2045301 / 1000000001 | TPS 15709.4 | ETA 17:38:46
Time 00:02:01 | Step 2198218 / 1000000001 | TPS 15291.6 | ETA 18:07:31
Time 00:02:11 | Step 2355629 / 1000000001 | TPS 15741 | ETA 17:36:18
Time 00:02:21 | Step 2510266 / 1000000001 | TPS 15463.7 | ETA 17:55:05
Time 00:02:31 | Step 2664281 / 1000000001 | TPS 15401.5 | ETA 17:59:15
Time 00:02:41 | Step 2818142 / 1000000001 | TPS 15386 | ETA 18:00:10
Time 00:02:51 | Step 2973312 / 1000000001 | TPS 15516.9 | ETA 17:50:54
Time 00:03:01 | Step 3129949 / 1000000001 | TPS 15663.7 | ETA 17:40:42
Time 00:03:11 | Step 3286375 / 1000000001 | TPS 15642.5 | ETA 17:41:58
Time 00:03:21 | Step 3444797 / 1000000001 | TPS 15842.2 | ETA 17:28:25
Time 00:03:31 | Step 3603921 / 1000000001 | TPS 15912.3 | ETA 17:23:37
Time 00:03:41 | Step 3763919 / 1000000001 | TPS 15999.8 | ETA 17:17:45
Time 00:03:51 | Step 3922993 / 1000000001 | TPS 15907.4 | ETA 17:23:37
Time 00:04:01 | Step 4082041 / 1000000001 | TPS 15904.7 | ETA 17:23:37
Time 00:04:11 | Step 4243613 / 1000000001 | TPS 16157.1 | ETA 17:07:09
Time 00:04:21 | Step 4406845 / 1000000001 | TPS 16323.2 | ETA 16:56:32
Time 00:04:31 | Step 4568836 / 1000000001 | TPS 16199 | ETA 17:04:10
Time 00:04:41 | Step 4732456 / 1000000001 | TPS 16362 | ETA 16:53:48
Time 00:04:51 | Step 4896413 / 1000000001 | TPS 16395.6 | ETA 16:51:33
Time 00:05:01 | Step 5060302 / 1000000001 | TPS 16388.8 | ETA 16:51:48
Time 00:05:11 | Step 5224469 / 1000000001 | TPS 16416.6 | ETA 16:49:55
Time 00:05:21 | Step 5388734 / 1000000001 | TPS 16426.5 | ETA 16:49:09
Time 00:05:31 | Step 5553934 / 1000000001 | TPS 16520 | ETA 16:43:16
Time 00:05:41 | Step 5718129 / 1000000001 | TPS 16419.4 | ETA 16:49:15
Time 00:05:51 | Step 5884899 / 1000000001 | TPS 16676.9 | ETA 16:33:30
Time 00:06:01 | Step 6051514 / 1000000001 | TPS 16661.4 | ETA 16:34:15
Time 00:06:11 | Step 6217439 / 1000000001 | TPS 16592.3 | ETA 16:38:14
Time 00:06:21 | Step 6383537 / 1000000001 | TPS 16609.7 | ETA 16:37:01
Time 00:06:31 | Step 6548990 / 1000000001 | TPS 16545.3 | ETA 16:40:44
Time 00:06:41 | Step 6715239 / 1000000001 | TPS 16624.8 | ETA 16:35:47
Time 00:06:51 | Step 6883035 / 1000000001 | TPS 16779.5 | ETA 16:26:26
Time 00:07:01 | Step 7051893 / 1000000001 | TPS 16885.8 | ETA 16:20:03
Time 00:07:11 | Step 7219518 / 1000000001 | TPS 16762.5 | ETA 16:27:06
Time 00:07:21 | Step 7385781 / 1000000001 | TPS 16626.2 | ETA 16:35:01
Time 00:07:31 | Step 7552495 / 1000000001 | TPS 16671.3 | ETA 16:32:10
Time 00:07:41 | Step 7721542 / 1000000001 | TPS 16904.7 | ETA 16:18:18
Time 00:07:51 | Step 7890120 / 1000000001 | TPS 16857.8 | ETA 16:20:51
Time 00:08:01 | Step 8060068 / 1000000001 | TPS 16994.7 | ETA 16:12:47
Time 00:08:11 | Step 8230158 / 1000000001 | TPS 17009 | ETA 16:11:48
Time 00:08:21 | Step 8398478 / 1000000001 | TPS 16831.9 | ETA 16:21:51
Time 00:08:31 | Step 8568660 / 1000000001 | TPS 17018.1 | ETA 16:10:57
Time 00:08:41 | Step 8737668 / 1000000001 | TPS 16900.7 | ETA 16:17:31
Time 00:08:51 | Step 8906132 / 1000000001 | TPS 16846.3 | ETA 16:20:31
Time 00:09:01 | Step 9075109 / 1000000001 | TPS 16897.5 | ETA 16:17:23
Time 00:09:11 | Step 9245006 / 1000000001 | TPS 16989.7 | ETA 16:11:55
Time 00:09:21 | Step 9415579 / 1000000001 | TPS 17057.3 | ETA 16:07:54
Time 00:09:31 | Step 9586275 / 1000000001 | TPS 17069.6 | ETA 16:07:02
Time 00:09:41 | Step 9755265 / 1000000001 | TPS 16899 | ETA 16:16:37
Time 00:09:51 | Step 9925567 / 1000000001 | TPS 17030.2 | ETA 16:08:56
Time 00:10:01 | Step 10095805 / 1000000001 | TPS 17023.7 | ETA 16:09:08
Time 00:10:11 | Step 10265475 / 1000000001 | TPS 16966.9 | ETA 16:12:13
Time 00:10:21 | Step 10433732 / 1000000001 | TPS 16825.7 | ETA 16:20:12
Time 00:10:31 | Step 10604136 / 1000000001 | TPS 17040.4 | ETA 16:07:41
Time 00:10:41 | Step 10775383 / 1000000001 | TPS 17124.7 | ETA 16:02:46
Time 00:10:51 | Step 10947099 / 1000000001 | TPS 17171.5 | ETA 15:59:58
Time 00:11:01 | Step 11118003 / 1000000001 | TPS 17090.4 | ETA 16:04:21
Time 00:11:11 | Step 11289291 / 1000000001 | TPS 17128.8 | ETA 16:02:02
Time 00:11:21 | Step 11460753 / 1000000001 | TPS 17146.1 | ETA 16:00:53
Time 00:11:31 | Step 11630698 / 1000000001 | TPS 16994.4 | ETA 16:09:18
Time 00:11:41 | Step 11800339 / 1000000001 | TPS 16964.1 | ETA 16:10:52
Time 00:11:51 | Step 11970741 / 1000000001 | TPS 17040 | ETA 16:06:22
Time 00:12:01 | Step 12141771 / 1000000001 | TPS 17102.9 | ETA 16:02:39
Time 00:12:11 | Step 12313151 / 1000000001 | TPS 17137.9 | ETA 16:00:31
Time 00:12:21 | Step 12484192 / 1000000001 | TPS 17104.1 | ETA 16:02:15
Time 00:12:31 | Step 12655648 / 1000000001 | TPS 17145.6 | ETA 15:59:45
Time 00:12:41 | Step 12827051 / 1000000001 | TPS 17140.2 | ETA 15:59:53
Time 00:12:51 | Step 12997312 / 1000000001 | TPS 17026.1 | ETA 16:06:10
Time 00:13:01 | Step 13167880 / 1000000001 | TPS 17056.7 | ETA 16:04:15
Time 00:13:11 | Step 13338791 / 1000000001 | TPS 17091 | ETA 16:02:09
Time 00:13:21 | Step 13510382 / 1000000001 | TPS 17159.1 | ETA 15:58:10
Time 00:13:31 | Step 13682255 / 1000000001 | TPS 17187.3 | ETA 15:56:26
Time 00:13:41 | Step 13854250 / 1000000001 | TPS 17199.5 | ETA 15:55:35
Time 00:13:51 | Step 14025888 / 1000000001 | TPS 17163.7 | ETA 15:57:25
Time 00:14:01 | Step 14197669 / 1000000001 | TPS 17178 | ETA 15:56:27
Time 00:14:11 | Step 14369206 / 1000000001 | TPS 17153.5 | ETA 15:57:39
Time 00:14:21 | Step 14540675 / 1000000001 | TPS 17146.9 | ETA 15:57:51
Time 00:14:31 | Step 14712460 / 1000000001 | TPS 17178.4 | ETA 15:55:56
Time 00:14:41 | Step 14883771 / 1000000001 | TPS 17131.1 | ETA 15:58:24
Time 00:14:51 | Step 15055435 / 1000000001 | TPS 17166.3 | ETA 15:56:16
Time 00:15:01 | Step 15226572 / 1000000001 | TPS 17113.7 | ETA 15:59:03
Time 00:15:11 | Step 15398217 / 1000000001 | TPS 17164.4 | ETA 15:56:03
Time 00:15:21 | Step 15569762 / 1000000001 | TPS 17154.5 | ETA 15:56:26
Time 00:15:31 | Step 15741480 / 1000000001 | TPS 17171.7 | ETA 15:55:18
Time 00:15:41 | Step 15912904 / 1000000001 | TPS 17142.4 | ETA 15:56:46
Time 00:15:51 | Step 16084645 / 1000000001 | TPS 17174.1 | ETA 15:54:50
Time 00:16:01 | Step 16256323 / 1000000001 | TPS 17167.8 | ETA 15:55:01
Time 00:16:11 | Step 16427590 / 1000000001 | TPS 17126.6 | ETA 15:57:09
Time 00:16:21 | Step 16598191 / 1000000001 | TPS 17060 | ETA 16:00:43
Time 00:16:31 | Step 16769180 / 1000000001 | TPS 17098.8 | ETA 15:58:22
Time 00:16:41 | Step 16940826 / 1000000001 | TPS 17164.5 | ETA 15:54:32
Time 00:16:51 | Step 17112663 / 1000000001 | TPS 17183.7 | ETA 15:53:18
Time 00:17:01 | Step 17284635 / 1000000001 | TPS 17197.2 | ETA 15:52:24
Time 00:17:11 | Step 17456693 / 1000000001 | TPS 17205.8 | ETA 15:51:45
Time 00:17:21 | Step 17628503 / 1000000001 | TPS 17181 | ETA 15:52:57
Time 00:17:31 | Step 17800458 / 1000000001 | TPS 17195.4 | ETA 15:51:59
Time 00:17:41 | Step 17972392 / 1000000001 | TPS 17193.4 | ETA 15:51:56
Time 00:17:51 | Step 18144096 / 1000000001 | TPS 17170.4 | ETA 15:53:03
Time 00:18:01 | Step 18315485 / 1000000001 | TPS 17138.9 | ETA 15:54:38
Time 00:18:11 | Step 18486772 / 1000000001 | TPS 17128.7 | ETA 15:55:02
Time 00:18:21 | Step 18658531 / 1000000001 | TPS 17175.8 | ETA 15:52:15
Time 00:18:31 | Step 18830371 / 1000000001 | TPS 17183.9 | ETA 15:51:38
Time 00:18:41 | Step 19002333 / 1000000001 | TPS 17196.2 | ETA 15:50:47
Time 00:18:51 | Step 19174385 / 1000000001 | TPS 17205.2 | ETA 15:50:07
Time 00:19:01 | Step 19345944 / 1000000001 | TPS 17155.9 | ETA 15:52:41
Time 00:19:11 | Step 19517773 / 1000000001 | TPS 17182.7 | ETA 15:51:02
Time 00:19:21 | Step 19689260 / 1000000001 | TPS 17148.6 | ETA 15:52:45
Time 00:19:31 | Step 19859001 / 1000000001 | TPS 16974 | ETA 16:02:23
Time 00:19:41 | Step 20030074 / 1000000001 | TPS 17107.2 | ETA 15:54:44
Time 00:19:51 | Step 20201630 / 1000000001 | TPS 17155.5 | ETA 15:51:52
Time 00:20:01 | Step 20372990 / 1000000001 | TPS 17135.9 | ETA 15:52:47
Time 00:20:11 | Step 20544388 / 1000000001 | TPS 17139.8 | ETA 15:52:25
Time 00:20:21 | Step 20716033 / 1000000001 | TPS 17164.4 | ETA 15:50:53
Time 00:20:31 | Step 20887744 / 1000000001 | TPS 17171 | ETA 15:50:21
Time 00:20:41 | Step 21059332 / 1000000001 | TPS 17158.7 | ETA 15:50:52
Time 00:20:51 | Step 21231154 / 1000000001 | TPS 17182.2 | ETA 15:49:24
Time 00:21:01 | Step 21403038 / 1000000001 | TPS 17188.3 | ETA 15:48:53
Time 00:21:11 | Step 21574999 / 1000000001 | TPS 17196.1 | ETA 15:48:18
Time 00:21:21 | Step 21747083 / 1000000001 | TPS 17208.3 | ETA 15:47:27
Time 00:21:31 | Step 21918776 / 1000000001 | TPS 17169.2 | ETA 15:49:27
Time 00:21:41 | Step 22090283 / 1000000001 | TPS 17150.7 | ETA 15:50:18
Time 00:21:51 | Step 22262196 / 1000000001 | TPS 17191.3 | ETA 15:47:54
Time 00:22:01 | Step 22432111 / 1000000001 | TPS 16991.5 | ETA 15:58:52
Time 00:22:11 | Step 22603188 / 1000000001 | TPS 17107.7 | ETA 15:52:12
Time 00:22:21 | Step 22774921 / 1000000001 | TPS 17173.1 | ETA 15:48:24
Time 00:22:31 | Step 22946819 / 1000000001 | TPS 17189.8 | ETA 15:47:19
Time 00:22:41 | Step 23118759 / 1000000001 | TPS 17194 | ETA 15:46:55
Time 00:22:51 | Step 23290916 / 1000000001 | TPS 17215.6 | ETA 15:45:33
Time 00:23:01 | Step 23462979 / 1000000001 | TPS 17206.3 | ETA 15:45:54
Time 00:23:11 | Step 23634989 / 1000000001 | TPS 17200.8 | ETA 15:46:02
Time 00:23:21 | Step 23806830 / 1000000001 | TPS 17184 | ETA 15:46:48
Time 00:23:31 | Step 23978776 / 1000000001 | TPS 17194.5 | ETA 15:46:03
Time 00:23:41 | Step 24150403 / 1000000001 | TPS 17162.6 | ETA 15:47:38
Time 00:23:51 | Step 24321995 / 1000000001 | TPS 17159.1 | ETA 15:47:40
Time 00:24:01 | Step 24493534 / 1000000001 | TPS 17153.8 | ETA 15:47:48
Time 00:24:11 | Step 24665477 / 1000000001 | TPS 17194.3 | ETA 15:45:24
Time 00:24:21 | Step 24837464 / 1000000001 | TPS 17198.7 | ETA 15:44:59
Time 00:24:31 | Step 25009450 / 1000000001 | TPS 17198.5 | ETA 15:44:50
Time 00:24:41 | Step 25181446 / 1000000001 | TPS 17199.5 | ETA 15:44:37
Time 00:24:51 | Step 25353462 / 1000000001 | TPS 17201.6 | ETA 15:44:20
Time 00:25:01 | Step 25525475 / 1000000001 | TPS 17201.3 | ETA 15:44:11
Time 00:25:11 | Step 25697584 / 1000000001 | TPS 17210.9 | ETA 15:43:29
Time 00:25:21 | Step 25869317 / 1000000001 | TPS 17173.3 | ETA 15:45:23
Time 00:25:31 | Step 26041220 / 1000000001 | TPS 17190.3 | ETA 15:44:17
Time 00:25:41 | Step 26213097 / 1000000001 | TPS 17187.6 | ETA 15:44:16
Time 00:25:51 | Step 26385170 / 1000000001 | TPS 17207.2 | ETA 15:43:01
Time 00:26:01 | Step 26557029 / 1000000001 | TPS 17185.7 | ETA 15:44:02
Time 00:26:11 | Step 26728946 / 1000000001 | TPS 17191.7 | ETA 15:43:32
Time 00:26:21 | Step 26900845 / 1000000001 | TPS 17189.9 | ETA 15:43:28
Time 00:26:31 | Step 27072816 / 1000000001 | TPS 17197.1 | ETA 15:42:55
Time 00:26:41 | Step 27244809 / 1000000001 | TPS 17199.2 | ETA 15:42:38
Time 00:26:51 | Step 27416878 / 1000000001 | TPS 17206.9 | ETA 15:42:02
Time 00:27:01 | Step 27588873 / 1000000001 | TPS 17199.5 | ETA 15:42:17
Time 00:27:11 | Step 27760616 / 1000000001 | TPS 17174.2 | ETA 15:43:30
Time 00:27:21 | Step 27932583 / 1000000001 | TPS 17196.7 | ETA 15:42:06
Time 00:27:31 | Step 28103727 / 1000000001 | TPS 17114.3 | ETA 15:46:28
Time 00:27:41 | Step 28275831 / 1000000001 | TPS 17210.4 | ETA 15:41:01
Time 00:27:51 | Step 28447891 / 1000000001 | TPS 17205.9 | ETA 15:41:06
Time 00:28:01 | Step 28619997 / 1000000001 | TPS 17210.5 | ETA 15:40:41
Time 00:28:11 | Step 28791936 / 1000000001 | TPS 17193.9 | ETA 15:41:25
Time 00:28:21 | Step 28963930 / 1000000001 | TPS 17199.4 | ETA 15:40:57
Time 00:28:31 | Step 29135856 / 1000000001 | TPS 17192.5 | ETA 15:41:10
Time 00:28:41 | Step 29307870 / 1000000001 | TPS 17201.4 | ETA 15:40:31
Time 00:28:51 | Step 29479975 / 1000000001 | TPS 17210.4 | ETA 15:39:51
Time 00:29:01 | Step 29652100 / 1000000001 | TPS 17212.4 | ETA 15:39:34
Time 00:29:11 | Step 29824008 / 1000000001 | TPS 17190.8 | ETA 15:40:35
Time 00:29:21 | Step 29996100 / 1000000001 | TPS 17209.2 | ETA 15:39:25
Time 00:29:31 | Step 30168093 / 1000000001 | TPS 17199.2 | ETA 15:39:48
Time 00:29:41 | Step 30340005 / 1000000001 | TPS 17191.2 | ETA 15:40:04
Time 00:29:51 | Step 30511899 / 1000000001 | TPS 17189.3 | ETA 15:40:00
Time 00:30:01 | Step 30683659 / 1000000001 | TPS 17176 | ETA 15:40:34
Time 00:30:11 | Step 30855440 / 1000000001 | TPS 17178.1 | ETA 15:40:17
Time 00:30:21 | Step 31027016 / 1000000001 | TPS 17157.5 | ETA 15:41:15
Time 00:30:31 | Step 31198860 / 1000000001 | TPS 17184.4 | ETA 15:39:36
Time 00:30:41 | Step 31370798 / 1000000001 | TPS 17193.7 | ETA 15:38:56
Time 00:30:51 | Step 31542628 / 1000000001 | TPS 17183 | ETA 15:39:21
Time 00:31:01 | Step 31714377 / 1000000001 | TPS 17174.9 | ETA 15:39:38
Time 00:31:11 | Step 31886282 / 1000000001 | TPS 17190.4 | ETA 15:38:37
Time 00:31:21 | Step 32058035 / 1000000001 | TPS 17175.2 | ETA 15:39:16
Time 00:31:31 | Step 32229889 / 1000000001 | TPS 17185.4 | ETA 15:38:33
Time 00:31:41 | Step 32401839 / 1000000001 | TPS 17194.9 | ETA 15:37:52
Time 00:31:51 | Step 32573734 / 1000000001 | TPS 17189.5 | ETA 15:38:00
Time 00:32:01 | Step 32745729 / 1000000001 | TPS 17199.4 | ETA 15:37:17
Time 00:32:11 | Step 32917625 / 1000000001 | TPS 17189.6 | ETA 15:37:39
Time 00:32:21 | Step 33089306 / 1000000001 | TPS 17168 | ETA 15:38:40
Time 00:32:31 | Step 33261242 / 1000000001 | TPS 17193.5 | ETA 15:37:07
Time 00:32:41 | Step 33433047 / 1000000001 | TPS 17180.5 | ETA 15:37:39
Time 00:32:51 | Step 33604895 / 1000000001 | TPS 17184.8 | ETA 15:37:15
Time 00:33:01 | Step 33776624 / 1000000001 | TPS 17172.7 | ETA 15:37:45
Time 00:33:11 | Step 33948442 / 1000000001 | TPS 17181.8 | ETA 15:37:05
Time 00:33:21 | Step 34120292 / 1000000001 | TPS 17184.9 | ETA 15:36:45
Time 00:33:31 | Step 34292198 / 1000000001 | TPS 17190.4 | ETA 15:36:17
Time 00:33:41 | Step 34463918 / 1000000001 | TPS 17171.9 | ETA 15:37:07
Time 00:33:51 | Step 34635519 / 1000000001 | TPS 17160 | ETA 15:37:36
Time 00:34:01 | Step 34807401 / 1000000001 | TPS 17188.2 | ETA 15:35:54
Time 00:34:11 | Step 34979180 / 1000000001 | TPS 17177.9 | ETA 15:36:18
Time 00:34:21 | Step 35150816 / 1000000001 | TPS 17163.5 | ETA 15:36:55
Time 00:34:31 | Step 35322892 / 1000000001 | TPS 17207.6 | ETA 15:34:21
Time 00:34:41 | Step 35494861 / 1000000001 | TPS 17196.9 | ETA 15:34:46
Time 00:34:51 | Step 35666611 / 1000000001 | TPS 17175 | ETA 15:35:47
Time 00:35:01 | Step 35838561 / 1000000001 | TPS 17194.9 | ETA 15:34:32
Time 00:35:11 | Step 36010394 / 1000000001 | TPS 17183.2 | ETA 15:35:00
Time 00:35:21 | Step 36182186 / 1000000001 | TPS 17179.1 | ETA 15:35:03
Time 00:35:31 | Step 36354041 / 1000000001 | TPS 17185.5 | ETA 15:34:33
Time 00:35:41 | Step 36525575 / 1000000001 | TPS 17153.4 | ETA 15:36:08
Time 00:35:51 | Step 36697356 / 1000000001 | TPS 17178.1 | ETA 15:34:37
Time 00:36:01 | Step 36869192 / 1000000001 | TPS 17183.5 | ETA 15:34:09
Time 00:36:11 | Step 37041232 / 1000000001 | TPS 17203.9 | ETA 15:32:53
Time 00:36:21 | Step 37213368 / 1000000001 | TPS 17213.5 | ETA 15:32:11
Time 00:36:31 | Step 37385482 / 1000000001 | TPS 17211.4 | ETA 15:32:08
Time 00:36:41 | Step 37557464 / 1000000001 | TPS 17198.1 | ETA 15:32:42
Time 00:36:51 | Step 37729502 / 1000000001 | TPS 17203.8 | ETA 15:32:13
Time 00:37:01 | Step 37901343 / 1000000001 | TPS 17184.1 | ETA 15:33:07
Time 00:37:11 | Step 38073100 / 1000000001 | TPS 17175.7 | ETA 15:33:25
Time 00:37:21 | Step 38244960 / 1000000001 | TPS 17185.9 | ETA 15:32:41
Time 00:37:31 | Step 38416833 / 1000000001 | TPS 17187.2 | ETA 15:32:27
Time 00:37:41 | Step 38588705 / 1000000001 | TPS 17187.2 | ETA 15:32:17
Time 00:37:51 | Step 38760641 / 1000000001 | TPS 17193.5 | ETA 15:31:47
Time 00:38:01 | Step 38932415 / 1000000001 | TPS 17177.3 | ETA 15:32:29
Time 00:38:11 | Step 39104261 / 1000000001 | TPS 17184.6 | ETA 15:31:56
Time 00:38:21 | Step 39276158 / 1000000001 | TPS 17189.6 | ETA 15:31:29
Time 00:38:31 | Step 39448136 / 1000000001 | TPS 17197.8 | ETA 15:30:53
Time 00:38:41 | Step 39620001 / 1000000001 | TPS 17186.4 | ETA 15:31:20
Time 00:38:51 | Step 39791771 / 1000000001 | TPS 17176.9 | ETA 15:31:40
Time 00:39:01 | Step 39963631 / 1000000001 | TPS 17186 | ETA 15:31:01
Time 00:39:11 | Step 40135559 / 1000000001 | TPS 17192.8 | ETA 15:30:29
Time 00:39:21 | Step 40307426 / 1000000001 | TPS 17186.7 | ETA 15:30:39
Time 00:39:31 | Step 40479290 / 1000000001 | TPS 17186.4 | ETA 15:30:30
Time 00:39:41 | Step 40651218 / 1000000001 | TPS 17192.7 | ETA 15:29:59
Time 00:39:51 | Step 40822969 / 1000000001 | TPS 17175 | ETA 15:30:47
Time 00:40:01 | Step 40994833 / 1000000001 | TPS 17186.3 | ETA 15:30:00
Time 00:40:11 | Step 41166599 / 1000000001 | TPS 17176.5 | ETA 15:30:22
Time 00:40:21 | Step 41338467 / 1000000001 | TPS 17186.7 | ETA 15:29:39
Time 00:40:31 | Step 41510339 / 1000000001 | TPS 17187.1 | ETA 15:29:27
Time 00:40:41 | Step 41682173 / 1000000001 | TPS 17183.3 | ETA 15:29:30
Time 00:40:51 | Step 41853973 / 1000000001 | TPS 17179.8 | ETA 15:29:31
Time 00:41:01 | Step 42025793 / 1000000001 | TPS 17182 | ETA 15:29:14
Time 00:41:11 | Step 42197692 / 1000000001 | TPS 17189.8 | ETA 15:28:39
Time 00:41:21 | Step 42369648 / 1000000001 | TPS 17195.6 | ETA 15:28:10
Time 00:41:31 | Step 42541502 / 1000000001 | TPS 17185.3 | ETA 15:28:33
Time 00:41:41 | Step 42713532 / 1000000001 | TPS 17203 | ETA 15:27:26
Time 00:41:51 | Step 42885642 / 1000000001 | TPS 17211 | ETA 15:26:50
Time 00:42:01 | Step 43057507 / 1000000001 | TPS 17186.5 | ETA 15:27:59
Time 00:42:11 | Step 43228980 / 1000000001 | TPS 17147.3 | ETA 15:29:57
Time 00:42:21 | Step 43400781 / 1000000001 | TPS 17180 | ETA 15:28:00
Time 00:42:31 | Step 43572686 / 1000000001 | TPS 17190.5 | ETA 15:27:17
Time 00:42:41 | Step 43744695 / 1000000001 | TPS 17200.8 | ETA 15:26:33
Time 00:42:51 | Step 43916803 / 1000000001 | TPS 17210.8 | ETA 15:25:51
Time 00:43:01 | Step 44088709 / 1000000001 | TPS 17190.5 | ETA 15:26:46
Time 00:43:11 | Step 44260584 / 1000000001 | TPS 17187.5 | ETA 15:26:46
Time 00:43:21 | Step 44432347 / 1000000001 | TPS 17176.2 | ETA 15:27:13
Time 00:43:31 | Step 44604162 / 1000000001 | TPS 17181.4 | ETA 15:26:46
Time 00:43:41 | Step 44775982 / 1000000001 | TPS 17181.9 | ETA 15:26:34
Time 00:43:51 | Step 44947849 / 1000000001 | TPS 17186.5 | ETA 15:26:09
Time 00:44:01 | Step 45119668 / 1000000001 | TPS 17181.9 | ETA 15:26:14
Time 00:44:11 | Step 45291539 / 1000000001 | TPS 17187.1 | ETA 15:25:48
Time 00:44:21 | Step 45463402 / 1000000001 | TPS 17186.2 | ETA 15:25:40
Time 00:44:31 | Step 45635086 / 1000000001 | TPS 17168.4 | ETA 15:26:28
Time 00:44:41 | Step 45806921 / 1000000001 | TPS 17183.4 | ETA 15:25:29
Time 00:44:51 | Step 45978906 / 1000000001 | TPS 17198.5 | ETA 15:24:31
Time 00:45:01 | Step 46150503 / 1000000001 | TPS 17159.7 | ETA 15:26:26
Time 00:45:11 | Step 46322457 / 1000000001 | TPS 17195.4 | ETA 15:24:21
Time 00:45:21 | Step 46494301 / 1000000001 | TPS 17184.1 | ETA 15:24:47
Time 00:45:31 | Step 46666206 / 1000000001 | TPS 17190.5 | ETA 15:24:17
Time 00:45:41 | Step 46838336 / 1000000001 | TPS 17212.8 | ETA 15:22:55
Time 00:45:51 | Step 47010215 / 1000000001 | TPS 17187.7 | ETA 15:24:05
Time 00:46:01 | Step 47182245 / 1000000001 | TPS 17203 | ETA 15:23:06
Time 00:46:11 | Step 47354131 / 1000000001 | TPS 17188.6 | ETA 15:23:43
Time 00:46:21 | Step 47526000 / 1000000001 | TPS 17186.8 | ETA 15:23:39
Time 00:46:31 | Step 47697965 / 1000000001 | TPS 17196.5 | ETA 15:22:57
Time 00:46:41 | Step 47869868 / 1000000001 | TPS 17190.2 | ETA 15:23:07
Time 00:46:51 | Step 48040966 / 1000000001 | TPS 17109.8 | ETA 15:27:18
Time 00:47:01 | Step 48212790 / 1000000001 | TPS 17182.4 | ETA 15:23:13
Time 00:47:11 | Step 48384665 / 1000000001 | TPS 17187.5 | ETA 15:22:46
Time 00:47:21 | Step 48556659 / 1000000001 | TPS 17199.3 | ETA 15:21:58
Time 00:47:31 | Step 48728628 / 1000000001 | TPS 17196.8 | ETA 15:21:56
Time 00:47:41 | Step 48900617 / 1000000001 | TPS 17198.8 | ETA 15:21:40
Time 00:47:51 | Step 49072449 / 1000000001 | TPS 17183.1 | ETA 15:22:20
Time 00:48:01 | Step 49244279 / 1000000001 | TPS 17183 | ETA 15:22:11
Time 00:48:11 | Step 49416240 / 1000000001 | TPS 17196.1 | ETA 15:21:19
Time 00:48:21 | Step 49588243 / 1000000001 | TPS 17200.3 | ETA 15:20:55
Time 00:48:31 | Step 49760149 / 1000000001 | TPS 17190.5 | ETA 15:21:16
Time 00:48:41 | Step 49932179 / 1000000001 | TPS 17203 | ETA 15:20:26
Time 00:48:51 | Step 50104015 / 1000000001 | TPS 17183.5 | ETA 15:21:19
Time 00:49:01 | Step 50276072 / 1000000001 | TPS 17205.7 | ETA 15:19:58
Time 00:49:11 | Step 50447998 / 1000000001 | TPS 17192.6 | ETA 15:20:30
Time 00:49:21 | Step 50619917 / 1000000001 | TPS 17191.8 | ETA 15:20:22
Time 00:49:31 | Step 50791833 / 1000000001 | TPS 17191.6 | ETA 15:20:13
Time 00:49:41 | Step 50963652 / 1000000001 | TPS 17181.8 | ETA 15:20:34
Time 00:49:51 | Step 51135589 / 1000000001 | TPS 17193.5 | ETA 15:19:47
Time 00:50:01 | Step 51307648 / 1000000001 | TPS 17205.8 | ETA 15:18:57
Time 00:50:11 | Step 51479665 / 1000000001 | TPS 17201.7 | ETA 15:19:01
Time 00:50:21 | Step 51651681 / 1000000001 | TPS 17201.6 | ETA 15:18:51
Time 00:50:31 | Step 51823629 / 1000000001 | TPS 17194.7 | ETA 15:19:03
Time 00:50:41 | Step 51995468 / 1000000001 | TPS 17183.9 | ETA 15:19:28
Time 00:50:51 | Step 52167476 / 1000000001 | TPS 17200.8 | ETA 15:18:24
Time 00:51:01 | Step 52339461 / 1000000001 | TPS 17198.4 | ETA 15:18:21
Time 00:51:11 | Step 52511362 / 1000000001 | TPS 17190.1 | ETA 15:18:38
Time 00:51:21 | Step 52683283 / 1000000001 | TPS 17192.1 | ETA 15:18:21
Time 00:51:31 | Step 52855179 / 1000000001 | TPS 17189.6 | ETA 15:18:19
Time 00:51:41 | Step 53026914 / 1000000001 | TPS 17173.4 | ETA 15:19:01
Time 00:51:51 | Step 53198204 / 1000000001 | TPS 17129 | ETA 15:21:14
Time 00:52:01 | Step 53370181 / 1000000001 | TPS 17197.7 | ETA 15:17:24
Time 00:52:11 | Step 53541968 / 1000000001 | TPS 17178.7 | ETA 15:18:15
Time 00:52:21 | Step 53713954 / 1000000001 | TPS 17198.5 | ETA 15:17:01
Time 00:52:31 | Step 53885517 / 1000000001 | TPS 17156.3 | ETA 15:19:06
Time 00:52:41 | Step 54057326 / 1000000001 | TPS 17180.8 | ETA 15:17:38
Time 00:52:51 | Step 54229260 / 1000000001 | TPS 17193.4 | ETA 15:16:47
Time 00:53:01 | Step 54401247 / 1000000001 | TPS 17198.6 | ETA 15:16:20
Time 00:53:11 | Step 54573167 / 1000000001 | TPS 17192 | ETA 15:16:32
Time 00:53:21 | Step 54745023 / 1000000001 | TPS 17185.5 | ETA 15:16:42
Time 00:53:31 | Step 54916953 / 1000000001 | TPS 17192.9 | ETA 15:16:09
Time 00:53:41 | Step 55088729 / 1000000001 | TPS 17177.5 | ETA 15:16:48
Time 00:53:51 | Step 55260469 / 1000000001 | TPS 17173.9 | ETA 15:16:50
Time 00:54:01 | Step 55432323 / 1000000001 | TPS 17185.2 | ETA 15:16:03
Time 00:54:11 | Step 55604124 / 1000000001 | TPS 17180.1 | ETA 15:16:10
Time 00:54:21 | Step 55775931 / 1000000001 | TPS 17180.7 | ETA 15:15:58
Time 00:54:31 | Step 55947744 / 1000000001 | TPS 17181.2 | ETA 15:15:46
Time 00:54:41 | Step 56118535 / 1000000001 | TPS 17079.1 | ETA 15:21:05
Time 00:54:51 | Step 56290376 / 1000000001 | TPS 17184 | ETA 15:15:17
Time 00:55:01 | Step 56462384 / 1000000001 | TPS 17200.8 | ETA 15:14:14
Time 00:55:11 | Step 56634284 / 1000000001 | TPS 17189.8 | ETA 15:14:39
Time 00:55:21 | Step 56806341 / 1000000001 | TPS 17205.7 | ETA 15:13:38
Time 00:55:31 | Step 56978360 / 1000000001 | TPS 17201.8 | ETA 15:13:41
Time 00:55:41 | Step 57150201 / 1000000001 | TPS 17184.1 | ETA 15:14:27
Time 00:55:51 | Step 57322187 / 1000000001 | TPS 17198.6 | ETA 15:13:31
Time 00:56:01 | Step 57494210 / 1000000001 | TPS 17202.2 | ETA 15:13:09
Time 00:56:11 | Step 57666116 / 1000000001 | TPS 17190.5 | ETA 15:13:36
Time 00:56:21 | Step 57837925 / 1000000001 | TPS 17180.9 | ETA 15:13:57
Time 00:56:31 | Step 58009738 / 1000000001 | TPS 17181.1 | ETA 15:13:47
Time 00:56:41 | Step 58181783 / 1000000001 | TPS 17204.4 | ETA 15:12:22
Time 00:56:51 | Step 58353671 / 1000000001 | TPS 17188.7 | ETA 15:13:02
Time 00:57:01 | Step 58525685 / 1000000001 | TPS 17201.4 | ETA 15:12:12
Time 00:57:11 | Step 58697502 / 1000000001 | TPS 17181.7 | ETA 15:13:05
Time 00:57:21 | Step 58869431 / 1000000001 | TPS 17192.9 | ETA 15:12:19
Time 00:57:31 | Step 59041220 / 1000000001 | TPS 17178.9 | ETA 15:12:54
Time 00:57:41 | Step 59213222 / 1000000001 | TPS 17200.2 | ETA 15:11:36
Time 00:57:51 | Step 59385178 / 1000000001 | TPS 17195.6 | ETA 15:11:40
Time 00:58:01 | Step 59557130 / 1000000001 | TPS 17195.1 | ETA 15:11:32
Time 00:58:11 | Step 59729075 / 1000000001 | TPS 17194.4 | ETA 15:11:24
Time 00:58:21 | Step 59900756 / 1000000001 | TPS 17168.1 | ETA 15:12:38
Time 00:58:31 | Step 60072565 / 1000000001 | TPS 17180.8 | ETA 15:11:47
Time 00:58:41 | Step 60244565 / 1000000001 | TPS 17200 | ETA 15:10:36
Time 00:58:51 | Step 60416639 / 1000000001 | TPS 17207.3 | ETA 15:10:03
Time 00:59:01 | Step 60588424 / 1000000001 | TPS 17178.5 | ETA 15:11:25
Time 00:59:11 | Step 60760233 / 1000000001 | TPS 17180.9 | ETA 15:11:07
Time 00:59:21 | Step 60932190 / 1000000001 | TPS 17195.7 | ETA 15:10:10
Time 00:59:31 | Step 61103999 / 1000000001 | TPS 17180.7 | ETA 15:10:48
Time 00:59:41 | Step 61275920 / 1000000001 | TPS 17192.1 | ETA 15:10:02
Time 00:59:51 | Step 61447792 / 1000000001 | TPS 17187.1 | ETA 15:10:07
Time 01:00:01 | Step 61619790 / 1000000001 | TPS 17199.7 | ETA 15:09:17
Time 01:00:11 | Step 61791762 / 1000000001 | TPS 17197.1 | ETA 15:09:16
Time 01:00:21 | Step 61963543 / 1000000001 | TPS 17178.1 | ETA 15:10:06
Time 01:00:31 | Step 62135390 / 1000000001 | TPS 17184.7 | ETA 15:09:35
Time 01:00:41 | Step 62307425 / 1000000001 | TPS 17203.5 | ETA 15:08:26
Time 01:00:51 | Step 62479317 / 1000000001 | TPS 17189.2 | ETA 15:09:01
Time 01:01:01 | Step 62651204 / 1000000001 | TPS 17188.7 | ETA 15:08:52
Time 01:01:11 | Step 62823049 / 1000000001 | TPS 17184.5 | ETA 15:08:56
Time 01:01:21 | Step 62994855 / 1000000001 | TPS 17180.6 | ETA 15:08:58
Time 01:01:31 | Step 63165209 / 1000000001 | TPS 17035.4 | ETA 15:16:33
Time 01:01:41 | Step 63336960 / 1000000001 | TPS 17175 | ETA 15:08:56
Time 01:01:51 | Step 63508871 / 1000000001 | TPS 17191 | ETA 15:07:55
Time 01:02:01 | Step 63680827 / 1000000001 | TPS 17195.6 | ETA 15:07:31
Time 01:02:11 | Step 63852720 / 1000000001 | TPS 17189.3 | ETA 15:07:41
Time 01:02:21 | Step 64023377 / 1000000001 | TPS 17065.6 | ETA 15:14:05
Time 01:02:31 | Step 64195228 / 1000000001 | TPS 17185 | ETA 15:07:34
Time 01:02:41 | Step 64367138 / 1000000001 | TPS 17191 | ETA 15:07:05
Time 01:02:51 | Step 64539020 / 1000000001 | TPS 17188.1 | ETA 15:07:04
Time 01:03:01 | Step 64710876 / 1000000001 | TPS 17185.5 | ETA 15:07:03
Time 01:03:11 | Step 64882771 / 1000000001 | TPS 17189.5 | ETA 15:06:40
Time 01:03:21 | Step 65054532 / 1000000001 | TPS 17176 | ETA 15:07:13
Time 01:03:31 | Step 65226610 / 1000000001 | TPS 17207.7 | ETA 15:05:22
Time 01:03:41 | Step 65398508 / 1000000001 | TPS 17189.7 | ETA 15:06:09
Time 01:03:51 | Step 65570339 / 1000000001 | TPS 17183.1 | ETA 15:06:20
Time 01:04:01 | Step 65742149 / 1000000001 | TPS 17181 | ETA 15:06:17
Time 01:04:11 | Step 65914024 / 1000000001 | TPS 17187.5 | ETA 15:05:46
Time 01:04:21 | Step 66085790 / 1000000001 | TPS 17176.5 | ETA 15:06:11
Time 01:04:31 | Step 66257706 / 1000000001 | TPS 17191.6 | ETA 15:05:13
Time 01:04:41 | Step 66429709 / 1000000001 | TPS 17200.3 | ETA 15:04:36
Time 01:04:51 | Step 66601645 / 1000000001 | TPS 17193.5 | ETA 15:04:47
Time 01:05:01 | Step 66773577 / 1000000001 | TPS 17193 | ETA 15:04:39
Time 01:05:11 | Step 66945512 / 1000000001 | TPS 17193.5 | ETA 15:04:28
Time 01:05:21 | Step 67117290 / 1000000001 | TPS 17177.8 | ETA 15:05:07
Time 01:05:31 | Step 67289188 / 1000000001 | TPS 17189.8 | ETA 15:04:19
Time 01:05:41 | Step 67461149 / 1000000001 | TPS 17196.1 | ETA 15:03:49
Time 01:05:51 | Step 67633079 / 1000000001 | TPS 17193 | ETA 15:03:49
Time 01:06:01 | Step 67804832 / 1000000001 | TPS 17175.3 | ETA 15:04:35
Time 01:06:11 | Step 67976713 / 1000000001 | TPS 17188 | ETA 15:03:45
Time 01:06:21 | Step 68148580 / 1000000001 | TPS 17186.7 | ETA 15:03:39
Time 01:06:31 | Step 68320227 / 1000000001 | TPS 17164.7 | ETA 15:04:38
Time 01:06:41 | Step 68491882 / 1000000001 | TPS 17165.4 | ETA 15:04:26
Time 01:06:51 | Step 68663567 / 1000000001 | TPS 17168.4 | ETA 15:04:07
Time 01:07:01 | Step 68835380 / 1000000001 | TPS 17181.2 | ETA 15:03:16
Time 01:07:11 | Step 69007186 / 1000000001 | TPS 17180.6 | ETA 15:03:08
Time 01:07:21 | Step 69179028 / 1000000001 | TPS 17184.2 | ETA 15:02:47
Time 01:07:31 | Step 69350865 / 1000000001 | TPS 17183.7 | ETA 15:02:38
Time 01:07:41 | Step 69522646 / 1000000001 | TPS 17178.1 | ETA 15:02:46
Time 01:07:51 | Step 69694472 / 1000000001 | TPS 17182.4 | ETA 15:02:22
Time 01:08:01 | Step 69866291 / 1000000001 | TPS 17181.9 | ETA 15:02:14
Time 01:08:11 | Step 70038349 / 1000000001 | TPS 17205.8 | ETA 15:00:49
Time 01:08:21 | Step 70210391 / 1000000001 | TPS 17204.2 | ETA 15:00:44
Time 01:08:31 | Step 70382328 / 1000000001 | TPS 17193.7 | ETA 15:01:07
Time 01:08:41 | Step 70554295 / 1000000001 | TPS 17196.6 | ETA 15:00:48
Time 01:08:51 | Step 70726172 / 1000000001 | TPS 17187.6 | ETA 15:01:06
Time 01:09:01 | Step 70898070 / 1000000001 | TPS 17189.8 | ETA 15:00:49
Time 01:09:11 | Step 71069701 / 1000000001 | TPS 17162.8 | ETA 15:02:04
Time 01:09:21 | Step 71241610 / 1000000001 | TPS 17190.8 | ETA 15:00:26
Time 01:09:31 | Step 71413601 / 1000000001 | TPS 17199 | ETA 14:59:50
Time 01:09:41 | Step 71585694 / 1000000001 | TPS 17209.3 | ETA 14:59:08
Time 01:09:51 | Step 71757528 / 1000000001 | TPS 17183.3 | ETA 15:00:19
Time 01:10:01 | Step 71929542 / 1000000001 | TPS 17201.4 | ETA 14:59:13
Time 01:10:11 | Step 72101508 / 1000000001 | TPS 17196.5 | ETA 14:59:18
Time 01:10:21 | Step 72273273 / 1000000001 | TPS 17176.4 | ETA 15:00:11
Time 01:10:31 | Step 72445075 / 1000000001 | TPS 17180.1 | ETA 14:59:50
Time 01:10:41 | Step 72617022 / 1000000001 | TPS 17194.7 | ETA 14:58:54
Time 01:10:51 | Step 72788792 / 1000000001 | TPS 17177 | ETA 14:59:39
Time 01:11:01 | Step 72960572 / 1000000001 | TPS 17177.9 | ETA 14:59:26
Time 01:11:11 | Step 73132246 / 1000000001 | TPS 17167.4 | ETA 14:59:49
Time 01:11:21 | Step 73304077 / 1000000001 | TPS 17183.1 | ETA 14:58:50
Time 01:11:31 | Step 73476025 / 1000000001 | TPS 17194.7 | ETA 14:58:04
Time 01:11:41 | Step 73647755 / 1000000001 | TPS 17173 | ETA 14:59:02
Time 01:11:51 | Step 73819806 / 1000000001 | TPS 17205 | ETA 14:57:11
Time 01:12:01 | Step 73991709 / 1000000001 | TPS 17190.2 | ETA 14:57:48
Time 01:12:11 | Step 74163691 / 1000000001 | TPS 17198.2 | ETA 14:57:13
Time 01:12:21 | Step 74335734 / 1000000001 | TPS 17204.3 | ETA 14:56:44
Time 01:12:31 | Step 74507700 / 1000000001 | TPS 17196.6 | ETA 14:56:58
Time 01:12:41 | Step 74679652 / 1000000001 | TPS 17195.2 | ETA 14:56:52
Time 01:12:51 | Step 74851433 / 1000000001 | TPS 17178.1 | ETA 14:57:36
Time 01:13:01 | Step 75023279 / 1000000001 | TPS 17184.6 | ETA 14:57:05
Time 01:13:11 | Step 75195212 / 1000000001 | TPS 17193.2 | ETA 14:56:28
Time 01:13:21 | Step 75367070 / 1000000001 | TPS 17185.8 | ETA 14:56:42
Time 01:13:31 | Step 75539153 / 1000000001 | TPS 17208.2 | ETA 14:55:22
Time 01:13:41 | Step 75710936 / 1000000001 | TPS 17178.3 | ETA 14:56:45
Time 01:13:51 | Step 75882715 / 1000000001 | TPS 17177.9 | ETA 14:56:37
Time 01:14:01 | Step 76054110 / 1000000001 | TPS 17139.4 | ETA 14:58:27
Time 01:14:11 | Step 76225903 / 1000000001 | TPS 17179.3 | ETA 14:56:12
Time 01:14:21 | Step 76397583 / 1000000001 | TPS 17167.9 | ETA 14:56:38
Time 01:14:31 | Step 76569427 / 1000000001 | TPS 17184.2 | ETA 14:55:37
Time 01:14:41 | Step 76741401 / 1000000001 | TPS 17197.4 | ETA 14:54:46
Time 01:14:51 | Step 76913292 / 1000000001 | TPS 17189.1 | ETA 14:55:02
Time 01:15:01 | Step 77085077 / 1000000001 | TPS 17178.4 | ETA 14:55:25
Time 01:15:11 | Step 77256946 / 1000000001 | TPS 17186.9 | ETA 14:54:48
Time 01:15:21 | Step 77428793 / 1000000001 | TPS 17184.7 | ETA 14:54:45
Time 01:15:31 | Step 77600505 / 1000000001 | TPS 17171.2 | ETA 14:55:17
Time 01:15:41 | Step 77772341 / 1000000001 | TPS 17183.5 | ETA 14:54:29
Time 01:15:51 | Step 77944106 / 1000000001 | TPS 17176.5 | ETA 14:54:41
Time 01:16:01 | Step 78115801 / 1000000001 | TPS 17169.5 | ETA 14:54:53
Time 01:16:11 | Step 78287569 / 1000000001 | TPS 17176.8 | ETA 14:54:20
Time 01:16:21 | Step 78459408 / 1000000001 | TPS 17183.7 | ETA 14:53:48
Time 01:16:31 | Step 78631118 / 1000000001 | TPS 17171 | ETA 14:54:18
Time 01:16:41 | Step 78802957 / 1000000001 | TPS 17183.8 | ETA 14:53:28
Time 01:16:51 | Step 78974690 / 1000000001 | TPS 17173.3 | ETA 14:53:51
Time 01:17:01 | Step 79146314 / 1000000001 | TPS 17162.4 | ETA 14:54:15
Time 01:17:11 | Step 79318149 / 1000000001 | TPS 17183.4 | ETA 14:52:59
Time 01:17:21 | Step 79489763 / 1000000001 | TPS 17161.3 | ETA 14:53:58
Time 01:17:31 | Step 79661493 / 1000000001 | TPS 17173 | ETA 14:53:12
Time 01:17:41 | Step 79833430 / 1000000001 | TPS 17193.6 | ETA 14:51:57
Time 01:17:51 | Step 80005198 / 1000000001 | TPS 17176.7 | ETA 14:52:40
Time 01:18:01 | Step 80177091 / 1000000001 | TPS 17189.3 | ETA 14:51:51
Time 01:18:11 | Step 80348983 / 1000000001 | TPS 17189.1 | ETA 14:51:41
Time 01:18:21 | Step 80520707 / 1000000001 | TPS 17172.3 | ETA 14:52:24
Time 01:18:31 | Step 80692558 / 1000000001 | TPS 17185.1 | ETA 14:51:34
Time 01:18:41 | Step 80864305 / 1000000001 | TPS 17174.7 | ETA 14:51:56
Time 01:18:51 | Step 81036049 / 1000000001 | TPS 17174.4 | ETA 14:51:47
Time 01:19:01 | Step 81207961 / 1000000001 | TPS 17191.1 | ETA 14:50:45
Time 01:19:11 | Step 81379700 / 1000000001 | TPS 17173.8 | ETA 14:51:29
Time 01:19:21 | Step 81551556 / 1000000001 | TPS 17185.6 | ETA 14:50:42
Time 01:19:31 | Step 81723391 / 1000000001 | TPS 17183.5 | ETA 14:50:39
Time 01:19:41 | Step 81895269 / 1000000001 | TPS 17187.8 | ETA 14:50:16
Time 01:19:51 | Step 82067019 / 1000000001 | TPS 17174.9 | ETA 14:50:46
Time 01:20:01 | Step 82238762 / 1000000001 | TPS 17174.3 | ETA 14:50:38
Time 01:20:11 | Step 82410561 / 1000000001 | TPS 17179.8 | ETA 14:50:10
Time 01:20:21 | Step 82582289 / 1000000001 | TPS 17172.8 | ETA 14:50:22
Time 01:20:31 | Step 82753953 / 1000000001 | TPS 17166.2 | ETA 14:50:33
Time 01:20:41 | Step 82925690 / 1000000001 | TPS 17173.7 | ETA 14:49:59
Time 01:20:51 | Step 83097497 / 1000000001 | TPS 17180.7 | ETA 14:49:28
Time 01:21:01 | Step 83269460 / 1000000001 | TPS 17196.1 | ETA 14:48:30
Time 01:21:11 | Step 83441358 / 1000000001 | TPS 17189.7 | ETA 14:48:40
Time 01:21:21 | Step 83613335 / 1000000001 | TPS 17197.7 | ETA 14:48:05
Time 01:21:31 | Step 83785253 / 1000000001 | TPS 17191.6 | ETA 14:48:14
Time 01:21:41 | Step 83956884 / 1000000001 | TPS 17163.1 | ETA 14:49:32
Time 01:21:51 | Step 84128546 / 1000000001 | TPS 17166.2 | ETA 14:49:13
Time 01:22:01 | Step 84300433 / 1000000001 | TPS 17188.5 | ETA 14:47:53
Time 01:22:11 | Step 84472246 / 1000000001 | TPS 17181.2 | ETA 14:48:06
Time 01:22:21 | Step 84643950 / 1000000001 | TPS 17170.4 | ETA 14:48:30
Time 01:22:31 | Step 84815871 / 1000000001 | TPS 17192 | ETA 14:47:13
Time 01:22:41 | Step 84987877 / 1000000001 | TPS 17200.6 | ETA 14:46:36
Time 01:22:51 | Step 85159598 / 1000000001 | TPS 17172.1 | ETA 14:47:54
Time 01:23:01 | Step 85331270 / 1000000001 | TPS 17167.2 | ETA 14:48:00
Time 01:23:11 | Step 85503133 / 1000000001 | TPS 17186.3 | ETA 14:46:50
Time 01:23:21 | Step 85674957 / 1000000001 | TPS 17182.3 | ETA 14:46:53
Time 01:23:31 | Step 85846885 / 1000000001 | TPS 17192.6 | ETA 14:46:11
Time 01:23:41 | Step 86018890 / 1000000001 | TPS 17200.3 | ETA 14:45:37
Time 01:23:51 | Step 86190890 / 1000000001 | TPS 17199.9 | ETA 14:45:28
Time 01:24:01 | Step 86362801 / 1000000001 | TPS 17191 | ETA 14:45:46
Time 01:24:11 | Step 86534643 / 1000000001 | TPS 17184.2 | ETA 14:45:57
Time 01:24:21 | Step 86706462 / 1000000001 | TPS 17181.9 | ETA 14:45:54
Time 01:24:31 | Step 86878375 / 1000000001 | TPS 17191.3 | ETA 14:45:15
Time 01:24:41 | Step 87050133 / 1000000001 | TPS 17175.6 | ETA 14:45:53
Time 01:24:51 | Step 87221785 / 1000000001 | TPS 17165.2 | ETA 14:46:16
Time 01:25:01 | Step 87393341 / 1000000001 | TPS 17155.4 | ETA 14:46:36
Time 01:25:11 | Step 87565129 / 1000000001 | TPS 17178.7 | ETA 14:45:14
Time 01:25:21 | Step 87736789 / 1000000001 | TPS 17165.9 | ETA 14:45:43
Time 01:25:31 | Step 87908495 / 1000000001 | TPS 17170.6 | ETA 14:45:19
Time 01:25:41 | Step 88080148 / 1000000001 | TPS 17165.2 | ETA 14:45:25
Time 01:25:51 | Step 88251879 / 1000000001 | TPS 17173 | ETA 14:44:51
Time 01:26:01 | Step 88423710 / 1000000001 | TPS 17183.1 | ETA 14:44:10
Time 01:26:11 | Step 88595391 / 1000000001 | TPS 17168 | ETA 14:44:47
Time 01:26:21 | Step 88767168 / 1000000001 | TPS 17177.7 | ETA 14:44:07
Time 01:26:31 | Step 88939009 / 1000000001 | TPS 17184.1 | ETA 14:43:37
Time 01:26:41 | Step 89110813 / 1000000001 | TPS 17180.3 | ETA 14:43:39
Time 01:26:51 | Step 89282537 / 1000000001 | TPS 17172.4 | ETA 14:43:53
Time 01:27:01 | Step 89454446 / 1000000001 | TPS 17190.8 | ETA 14:42:46
Time 01:27:11 | Step 89626361 / 1000000001 | TPS 17191.5 | ETA 14:42:34
Time 01:27:21 | Step 89798083 / 1000000001 | TPS 17172.2 | ETA 14:43:24
Time 01:27:31 | Step 89969936 / 1000000001 | TPS 17185.1 | ETA 14:42:34
Time 01:27:41 | Step 90141803 / 1000000001 | TPS 17186.7 | ETA 14:42:19
Time 01:27:51 | Step 90313597 / 1000000001 | TPS 17179.4 | ETA 14:42:32
Time 01:28:01 | Step 90485329 / 1000000001 | TPS 17173.2 | ETA 14:42:41
Time 01:28:11 | Step 90657226 / 1000000001 | TPS 17189.6 | ETA 14:41:40
Time 01:28:21 | Step 90829146 / 1000000001 | TPS 17191.9 | ETA 14:41:23
Time 01:28:31 | Step 91000841 / 1000000001 | TPS 17169.5 | ETA 14:42:22
Time 01:28:41 | Step 91172663 / 1000000001 | TPS 17182 | ETA 14:41:34
Time 01:28:51 | Step 91344266 / 1000000001 | TPS 17160.3 | ETA 14:42:31
Time 01:29:01 | Step 91516071 / 1000000001 | TPS 17180.3 | ETA 14:41:19
Time 01:29:11 | Step 91687866 / 1000000001 | TPS 17179.5 | ETA 14:41:11
Time 01:29:21 | Step 91859694 / 1000000001 | TPS 17182.8 | ETA 14:40:51
Time 01:29:31 | Step 92031384 / 1000000001 | TPS 17168.8 | ETA 14:41:24
Time 01:29:41 | Step 92203097 / 1000000001 | TPS 17171.3 | ETA 14:41:07
Time 01:29:51 | Step 92374798 / 1000000001 | TPS 17170.1 | ETA 14:41:00
Time 01:30:01 | Step 92546583 / 1000000001 | TPS 17178.5 | ETA 14:40:24
Time 01:30:11 | Step 92718386 / 1000000001 | TPS 17180.3 | ETA 14:40:09
Time 01:30:21 | Step 92890161 / 1000000001 | TPS 17177.5 | ETA 14:40:08
Time 01:30:31 | Step 93061899 / 1000000001 | TPS 17173.8 | ETA 14:40:09
Time 01:30:41 | Step 93233461 / 1000000001 | TPS 17156.2 | ETA 14:40:53
Time 01:30:51 | Step 93405204 / 1000000001 | TPS 17174.3 | ETA 14:39:47
Time 01:31:01 | Step 93576993 / 1000000001 | TPS 17178.9 | ETA 14:39:23
Time 01:31:11 | Step 93748809 / 1000000001 | TPS 17181.5 | ETA 14:39:05
Time 01:31:21 | Step 93920538 / 1000000001 | TPS 17172.8 | ETA 14:39:22
Time 01:31:31 | Step 94092127 / 1000000001 | TPS 17158.9 | ETA 14:39:55
Time 01:31:41 | Step 94263840 / 1000000001 | TPS 17171.2 | ETA 14:39:07
Time 01:31:51 | Step 94435658 / 1000000001 | TPS 17181.7 | ETA 14:38:25
Time 01:32:01 | Step 94607482 / 1000000001 | TPS 17182.3 | ETA 14:38:13
Time 01:32:11 | Step 94779290 / 1000000001 | TPS 17180.7 | ETA 14:38:08
Time 01:32:21 | Step 94951059 / 1000000001 | TPS 17176.9 | ETA 14:38:09
Time 01:32:31 | Step 95122628 / 1000000001 | TPS 17156.8 | ETA 14:39:01
Time 01:32:41 | Step 95294461 / 1000000001 | TPS 17183.2 | ETA 14:37:30
Time 01:32:51 | Step 95466194 / 1000000001 | TPS 17173.3 | ETA 14:37:51
Time 01:33:01 | Step 95637925 / 1000000001 | TPS 17172.9 | ETA 14:37:42
Time 01:33:11 | Step 95809851 / 1000000001 | TPS 17192.5 | ETA 14:36:32
Time 01:33:21 | Step 95981763 / 1000000001 | TPS 17191.2 | ETA 14:36:26
Time 01:33:31 | Step 96153440 / 1000000001 | TPS 17167.7 | ETA 14:37:28
Time 01:33:41 | Step 96325103 / 1000000001 | TPS 17166.3 | ETA 14:37:22
Time 01:33:51 | Step 96496788 / 1000000001 | TPS 17168.5 | ETA 14:37:05
Time 01:34:01 | Step 96668578 / 1000000001 | TPS 17179 | ETA 14:36:23
Time 01:34:11 | Step 96840387 / 1000000001 | TPS 17180.9 | ETA 14:36:07
Time 01:34:21 | Step 97011874 / 1000000001 | TPS 17148.6 | ETA 14:37:36
Time 01:34:31 | Step 97183592 / 1000000001 | TPS 17171.8 | ETA 14:36:15
Time 01:34:41 | Step 97355374 / 1000000001 | TPS 17178 | ETA 14:35:46
Time 01:34:51 | Step 97526978 / 1000000001 | TPS 17160.3 | ETA 14:36:30
Time 01:35:01 | Step 97698657 / 1000000001 | TPS 17167.9 | ETA 14:35:57
Time 01:35:11 | Step 97870524 / 1000000001 | TPS 17186.6 | ETA 14:34:50
Time 01:35:21 | Step 98042311 / 1000000001 | TPS 17178.7 | ETA 14:35:04
Time 01:35:31 | Step 98214036 / 1000000001 | TPS 17172.4 | ETA 14:35:13
Time 01:35:41 | Step 98385772 / 1000000001 | TPS 17173.6 | ETA 14:35:00
Time 01:35:51 | Step 98557628 / 1000000001 | TPS 17185.5 | ETA 14:34:13
Time 01:36:01 | Step 98729472 / 1000000001 | TPS 17184.3 | ETA 14:34:07
Time 01:36:11 | Step 98901354 / 1000000001 | TPS 17188.2 | ETA 14:33:45
Time 01:36:21 | Step 99072919 / 1000000001 | TPS 17156.4 | ETA 14:35:12
Time 01:36:31 | Step 99244698 / 1000000001 | TPS 17177.9 | ETA 14:33:56
Time 01:36:41 | Step 99416526 / 1000000001 | TPS 17182.7 | ETA 14:33:32
Time 01:36:51 | Step 99588279 / 1000000001 | TPS 17175.2 | ETA 14:33:45
Time 01:37:01 | Step 99760155 / 1000000001 | TPS 17187.5 | ETA 14:32:57
Time 01:37:11 | Step 99931930 / 1000000001 | TPS 17177.5 | ETA 14:33:18
Time 01:37:21 | Step 100103637 / 1000000001 | TPS 17170.7 | ETA 14:33:28
Time 01:37:31 | Step 100275536 / 1000000001 | TPS 17189.8 | ETA 14:32:20
Time 01:37:41 | Step 100447346 / 1000000001 | TPS 17180.9 | ETA 14:32:37
Time 01:37:51 | Step 100619117 / 1000000001 | TPS 17177 | ETA 14:32:39
Time 01:38:01 | Step 100790681 / 1000000001 | TPS 17156.4 | ETA 14:33:32
Time 01:38:11 | Step 100962373 / 1000000001 | TPS 17169.1 | ETA 14:32:43
Time 01:38:21 | Step 101133893 / 1000000001 | TPS 17152 | ETA 14:33:26
Time 01:38:31 | Step 101305754 / 1000000001 | TPS 17186 | ETA 14:31:32
Time 01:38:41 | Step 101477592 / 1000000001 | TPS 17183.7 | ETA 14:31:29
Time 01:38:51 | Step 101649326 / 1000000001 | TPS 17173.2 | ETA 14:31:51
Time 01:39:01 | Step 101821152 / 1000000001 | TPS 17182.6 | ETA 14:31:12
Time 01:39:11 | Step 101993012 / 1000000001 | TPS 17185.8 | ETA 14:30:52
Time 01:39:21 | Step 102163834 / 1000000001 | TPS 17082.1 | ETA 14:35:59
Time 01:39:31 | Step 102335737 / 1000000001 | TPS 17190.2 | ETA 14:30:19
Time 01:39:41 | Step 102507610 / 1000000001 | TPS 17187.1 | ETA 14:30:18
Time 01:39:51 | Step 102679341 / 1000000001 | TPS 17173.1 | ETA 14:30:51
Time 01:40:01 | Step 102851174 / 1000000001 | TPS 17183.2 | ETA 14:30:10
Time 01:40:11 | Step 103022782 / 1000000001 | TPS 17160.8 | ETA 14:31:09
Time 01:40:21 | Step 103194599 / 1000000001 | TPS 17181.6 | ETA 14:29:55
Time 01:40:31 | Step 103366532 / 1000000001 | TPS 17193.2 | ETA 14:29:10
Time 01:40:41 | Step 103538307 / 1000000001 | TPS 17177.4 | ETA 14:29:48
Time 01:40:51 | Step 103710121 / 1000000001 | TPS 17181.4 | ETA 14:29:26
Time 01:41:01 | Step 103881949 / 1000000001 | TPS 17182.6 | ETA 14:29:12
Time 01:41:11 | Step 104053739 / 1000000001 | TPS 17178.9 | ETA 14:29:13
Time 01:41:21 | Step 104225644 / 1000000001 | TPS 17190.4 | ETA 14:28:28
Time 01:41:31 | Step 104397406 / 1000000001 | TPS 17176.1 | ETA 14:29:02
Time 01:41:41 | Step 104569217 / 1000000001 | TPS 17181.1 | ETA 14:28:37
Time 01:41:51 | Step 104740987 / 1000000001 | TPS 17177 | ETA 14:28:39
Time 01:42:01 | Step 104912878 / 1000000001 | TPS 17189.1 | ETA 14:27:53
Time 01:42:11 | Step 105084519 / 1000000001 | TPS 17164 | ETA 14:28:58
Time 01:42:21 | Step 105256501 / 1000000001 | TPS 17198.1 | ETA 14:27:05
Time 01:42:31 | Step 105428258 / 1000000001 | TPS 17175.7 | ETA 14:28:03
Time 01:42:41 | Step 105599762 / 1000000001 | TPS 17150.3 | ETA 14:29:10
Time 01:42:51 | Step 105771461 / 1000000001 | TPS 17169.9 | ETA 14:28:01
Time 01:43:01 | Step 105943304 / 1000000001 | TPS 17184.3 | ETA 14:27:07
Time 01:43:11 | Step 106115072 / 1000000001 | TPS 17176.7 | ETA 14:27:20
Time 01:43:21 | Step 106286899 / 1000000001 | TPS 17182.6 | ETA 14:26:52
Time 01:43:31 | Step 106458767 / 1000000001 | TPS 17186.6 | ETA 14:26:30
Time 01:43:41 | Step 106630690 / 1000000001 | TPS 17192.2 | ETA 14:26:03
Time 01:43:51 | Step 106802432 / 1000000001 | TPS 17174.1 | ETA 14:26:48
Time 01:44:01 | Step 106973993 / 1000000001 | TPS 17156 | ETA 14:27:33
Time 01:44:11 | Step 107145662 / 1000000001 | TPS 17166.9 | ETA 14:26:50
Time 01:44:21 | Step 107317471 / 1000000001 | TPS 17180.9 | ETA 14:25:57
Time 01:44:31 | Step 107489295 / 1000000001 | TPS 17182.3 | ETA 14:25:43
Time 01:44:41 | Step 107661028 / 1000000001 | TPS 17173.3 | ETA 14:26:00
Time 01:44:51 | Step 107832829 / 1000000001 | TPS 17180 | ETA 14:25:30
Time 01:45:01 | Step 108004568 / 1000000001 | TPS 17173.8 | ETA 14:25:39
Time 01:45:11 | Step 108176388 / 1000000001 | TPS 17182 | ETA 14:25:04
Time 01:45:21 | Step 108348207 / 1000000001 | TPS 17181.8 | ETA 14:24:55
Time 01:45:31 | Step 108519962 / 1000000001 | TPS 17175.5 | ETA 14:25:04
Time 01:45:41 | Step 108691880 / 1000000001 | TPS 17191.8 | ETA 14:24:05
Time 01:45:51 | Step 108863587 / 1000000001 | TPS 17170.6 | ETA 14:24:58
Time 01:46:01 | Step 109035413 / 1000000001 | TPS 17182.5 | ETA 14:24:12
Time 01:46:11 | Step 109207288 / 1000000001 | TPS 17187.5 | ETA 14:23:48
Time 01:46:21 | Step 109379241 / 1000000001 | TPS 17195.3 | ETA 14:23:14
Time 01:46:31 | Step 109551244 / 1000000001 | TPS 17200.2 | ETA 14:22:49
Time 01:46:41 | Step 109723308 / 1000000001 | TPS 17206.4 | ETA 14:22:21
Time 01:46:51 | Step 109895254 / 1000000001 | TPS 17194.6 | ETA 14:22:46
Time 01:47:01 | Step 110067013 / 1000000001 | TPS 17175.9 | ETA 14:23:32
Time 01:47:11 | Step 110238972 / 1000000001 | TPS 17195.9 | ETA 14:22:22
Time 01:47:21 | Step 110410966 / 1000000001 | TPS 17199.4 | ETA 14:22:02
Time 01:47:31 | Step 110582872 / 1000000001 | TPS 17190.6 | ETA 14:22:18
Time 01:47:41 | Step 110754791 / 1000000001 | TPS 17191.8 | ETA 14:22:05
Time 01:47:51 | Step 110926697 / 1000000001 | TPS 17190.6 | ETA 14:21:58
Time 01:48:01 | Step 111098206 / 1000000001 | TPS 17150.8 | ETA 14:23:48
Time 01:48:11 | Step 111270037 / 1000000001 | TPS 17183 | ETA 14:22:01
Time 01:48:21 | Step 111441963 / 1000000001 | TPS 17192.5 | ETA 14:21:22
Time 01:48:31 | Step 111613826 / 1000000001 | TPS 17186.1 | ETA 14:21:31
Time 01:48:41 | Step 111785759 / 1000000001 | TPS 17193.3 | ETA 14:21:00
Time 01:48:51 | Step 111957693 / 1000000001 | TPS 17193.4 | ETA 14:20:50
Time 01:49:01 | Step 112129432 / 1000000001 | TPS 17173.9 | ETA 14:21:38
Time 01:49:11 | Step 112301279 / 1000000001 | TPS 17184.7 | ETA 14:20:56
Time 01:49:21 | Step 112473163 / 1000000001 | TPS 17188.4 | ETA 14:20:35
Time 01:49:31 | Step 112644845 / 1000000001 | TPS 17168.2 | ETA 14:21:25
Time 01:49:41 | Step 112816682 / 1000000001 | TPS 17183.6 | ETA 14:20:29
Time 01:49:51 | Step 112988396 / 1000000001 | TPS 17171.4 | ETA 14:20:56
Time 01:50:01 | Step 113159540 / 1000000001 | TPS 17114.4 | ETA 14:23:38
Time 01:50:11 | Step 113331235 / 1000000001 | TPS 17169.5 | ETA 14:20:42
Time 01:50:21 | Step 113503053 / 1000000001 | TPS 17181.7 | ETA 14:19:55
Time 01:50:31 | Step 113674728 / 1000000001 | TPS 17167.5 | ETA 14:20:28
Time 01:50:41 | Step 113846475 / 1000000001 | TPS 17174.6 | ETA 14:19:56
Time 01:50:51 | Step 114018158 / 1000000001 | TPS 17168.3 | ETA 14:20:05
Time 01:51:01 | Step 114189922 / 1000000001 | TPS 17176.4 | ETA 14:19:31
Time 01:51:11 | Step 114361814 / 1000000001 | TPS 17189.1 | ETA 14:18:43
Time 01:51:21 | Step 114533638 / 1000000001 | TPS 17182.4 | ETA 14:18:53
Time 01:51:31 | Step 114705615 / 1000000001 | TPS 17197.6 | ETA 14:17:57
Time 01:51:41 | Step 114877550 / 1000000001 | TPS 17193.5 | ETA 14:18:00
Time 01:51:51 | Step 115049182 / 1000000001 | TPS 17163.2 | ETA 14:19:21
Time 01:52:01 | Step 115221038 / 1000000001 | TPS 17185.6 | ETA 14:18:03
Time 01:52:11 | Step 115392935 / 1000000001 | TPS 17189.7 | ETA 14:17:41
Time 01:52:21 | Step 115564799 / 1000000001 | TPS 17186.3 | ETA 14:17:41
Time 01:52:31 | Step 115736650 / 1000000001 | TPS 17185 | ETA 14:17:35
Time 01:52:41 | Step 115908437 / 1000000001 | TPS 17178.7 | ETA 14:17:44
Time 01:52:51 | Step 116080025 / 1000000001 | TPS 17158.7 | ETA 14:18:34
Time 01:53:01 | Step 116251750 / 1000000001 | TPS 17172.4 | ETA 14:17:43
Time 01:53:11 | Step 116423581 / 1000000001 | TPS 17183.1 | ETA 14:17:01
Time 01:53:21 | Step 116595364 / 1000000001 | TPS 17178.2 | ETA 14:17:05
Time 01:53:31 | Step 116767172 / 1000000001 | TPS 17180.8 | ETA 14:16:48
Time 01:53:41 | Step 116938838 / 1000000001 | TPS 17166.5 | ETA 14:17:20
Time 01:53:51 | Step 117110558 / 1000000001 | TPS 17172 | ETA 14:16:54
Time 01:54:01 | Step 117282472 / 1000000001 | TPS 17191.4 | ETA 14:15:46
Time 01:54:11 | Step 117454428 / 1000000001 | TPS 17195.6 | ETA 14:15:23
Time 01:54:21 | Step 117626347 / 1000000001 | TPS 17191.8 | ETA 14:15:25
Time 01:54:31 | Step 117798216 / 1000000001 | TPS 17186.9 | ETA 14:15:30
Time 01:54:41 | Step 117970122 / 1000000001 | TPS 17190.6 | ETA 14:15:08
Time 01:54:51 | Step 118141900 / 1000000001 | TPS 17177.7 | ETA 14:15:37
Time 01:55:01 | Step 118313768 / 1000000001 | TPS 17186.8 | ETA 14:15:00
Time 01:55:11 | Step 118485618 / 1000000001 | TPS 17184.8 | ETA 14:14:56
Time 01:55:21 | Step 118657547 / 1000000001 | TPS 17192.8 | ETA 14:14:22
Time 01:55:31 | Step 118829522 / 1000000001 | TPS 17197.5 | ETA 14:13:58
Time 01:55:41 | Step 119001389 / 1000000001 | TPS 17186.6 | ETA 14:14:20
Time 01:55:51 | Step 119173107 / 1000000001 | TPS 17171.8 | ETA 14:14:55
Time 01:56:01 | Step 119344947 / 1000000001 | TPS 17183.9 | ETA 14:14:08
Time 01:56:11 | Step 119516900 / 1000000001 | TPS 17195.2 | ETA 14:13:25
Time 01:56:21 | Step 119688743 / 1000000001 | TPS 17184.1 | ETA 14:13:48
Time 01:56:31 | Step 119860464 / 1000000001 | TPS 17172.1 | ETA 14:14:14
Time 01:56:41 | Step 120032257 / 1000000001 | TPS 17179.2 | ETA 14:13:42
Time 01:56:51 | Step 120204054 / 1000000001 | TPS 17179.6 | ETA 14:13:31
Time 01:57:01 | Step 120375872 / 1000000001 | TPS 17181.7 | ETA 14:13:15
Time 01:57:11 | Step 120547735 / 1000000001 | TPS 17186.2 | ETA 14:12:51
Time 01:57:21 | Step 120719590 / 1000000001 | TPS 17185.5 | ETA 14:12:44
Time 01:57:31 | Step 120891337 / 1000000001 | TPS 17174.7 | ETA 14:13:06
Time 01:57:41 | Step 121063122 / 1000000001 | TPS 17178.5 | ETA 14:12:44
Time 01:57:51 | Step 121234993 / 1000000001 | TPS 17187.1 | ETA 14:12:09
Time 01:58:01 | Step 121406812 / 1000000001 | TPS 17181.8 | ETA 14:12:14
Time 01:58:11 | Step 121578612 / 1000000001 | TPS 17180 | ETA 14:12:10
Time 01:58:21 | Step 121750350 / 1000000001 | TPS 17173.7 | ETA 14:12:19
Time 01:58:31 | Step 121922266 / 1000000001 | TPS 17191.4 | ETA 14:11:16
Time 01:58:41 | Step 122093885 / 1000000001 | TPS 17161.8 | ETA 14:12:34
Time 01:58:51 | Step 122265726 / 1000000001 | TPS 17184.1 | ETA 14:11:18
Time 01:59:01 | Step 122437632 / 1000000001 | TPS 17190.6 | ETA 14:10:49
Time 01:59:11 | Step 122609409 / 1000000001 | TPS 17177.5 | ETA 14:11:17
Time 01:59:21 | Step 122780986 / 1000000001 | TPS 17157.6 | ETA 14:12:07
Time 01:59:31 | Step 122952788 / 1000000001 | TPS 17180.2 | ETA 14:10:50
Time 01:59:41 | Step 123124449 / 1000000001 | TPS 17166.1 | ETA 14:11:21
Time 01:59:51 | Step 123296129 / 1000000001 | TPS 17167.9 | ETA 14:11:06
Time 02:00:01 | Step 123468016 / 1000000001 | TPS 17188.6 | ETA 14:09:54
Time 02:00:11 | Step 123639904 / 1000000001 | TPS 17188.7 | ETA 14:09:44
Time 02:00:21 | Step 123811798 / 1000000001 | TPS 17189.3 | ETA 14:09:32
Time 02:00:31 | Step 123983701 / 1000000001 | TPS 17190.2 | ETA 14:09:20
Time 02:00:41 | Step 124155511 / 1000000001 | TPS 17180.9 | ETA 14:09:37
Time 02:00:51 | Step 124327490 / 1000000001 | TPS 17197.8 | ETA 14:08:37
Time 02:01:01 | Step 124499317 / 1000000001 | TPS 17182.7 | ETA 14:09:12
Time 02:01:11 | Step 124671218 / 1000000001 | TPS 17190 | ETA 14:08:40
Time 02:01:21 | Step 124843211 / 1000000001 | TPS 17199.3 | ETA 14:08:03
Time 02:01:31 | Step 125015061 / 1000000001 | TPS 17184.9 | ETA 14:08:35
Time 02:01:41 | Step 125186875 / 1000000001 | TPS 17181.3 | ETA 14:08:36
Time 02:01:51 | Step 125358655 / 1000000001 | TPS 17177.9 | ETA 14:08:36
Time 02:02:01 | Step 125530525 / 1000000001 | TPS 17186.9 | ETA 14:07:59
Time 02:02:11 | Step 125702322 / 1000000001 | TPS 17179.6 | ETA 14:08:11
Time 02:02:21 | Step 125874253 / 1000000001 | TPS 17193 | ETA 14:07:21
Time 02:02:31 | Step 126046225 / 1000000001 | TPS 17197.1 | ETA 14:06:59
Time 02:02:41 | Step 126218285 / 1000000001 | TPS 17206 | ETA 14:06:23
Time 02:02:51 | Step 126390133 / 1000000001 | TPS 17184.8 | ETA 14:07:16
Time 02:03:01 | Step 126561811 / 1000000001 | TPS 17167.8 | ETA 14:07:56
Time 02:03:11 | Step 126733610 / 1000000001 | TPS 17179.9 | ETA 14:07:10
Time 02:03:21 | Step 126905415 / 1000000001 | TPS 17180.5 | ETA 14:06:59
Time 02:03:31 | Step 127077165 / 1000000001 | TPS 17174.8 | ETA 14:07:05
Time 02:03:41 | Step 127248857 / 1000000001 | TPS 17169.1 | ETA 14:07:12
Time 02:03:51 | Step 127420651 / 1000000001 | TPS 17179.3 | ETA 14:06:32
Time 02:04:01 | Step 127592654 / 1000000001 | TPS 17200.1 | ETA 14:05:20
Time 02:04:11 | Step 127764594 / 1000000001 | TPS 17194 | ETA 14:05:29
Time 02:04:21 | Step 127936589 / 1000000001 | TPS 17199.5 | ETA 14:05:02
Time 02:04:31 | Step 128108444 / 1000000001 | TPS 17185.4 | ETA 14:05:34
Time 02:04:41 | Step 128280245 / 1000000001 | TPS 17180 | ETA 14:05:40
Time 02:04:51 | Step 128452045 / 1000000001 | TPS 17179.9 | ETA 14:05:30
Time 02:05:01 | Step 128623880 / 1000000001 | TPS 17183.5 | ETA 14:05:10
Time 02:05:11 | Step 128795796 / 1000000001 | TPS 17191.6 | ETA 14:04:36
Time 02:05:21 | Step 128967701 / 1000000001 | TPS 17190.5 | ETA 14:04:29
Time 02:05:31 | Step 129139401 / 1000000001 | TPS 17169.9 | ETA 14:05:20
Time 02:05:41 | Step 129311114 / 1000000001 | TPS 17171.3 | ETA 14:05:06
Time 02:05:51 | Step 129482934 / 1000000001 | TPS 17182 | ETA 14:04:24
Time 02:06:01 | Step 129654728 / 1000000001 | TPS 17179.4 | ETA 14:04:22
Time 02:06:11 | Step 129826497 / 1000000001 | TPS 17176.8 | ETA 14:04:19
Time 02:06:21 | Step 129998216 / 1000000001 | TPS 17171.9 | ETA 14:04:24
Time 02:06:31 | Step 130170002 / 1000000001 | TPS 17178.6 | ETA 14:03:54
Time 02:06:41 | Step 130341925 / 1000000001 | TPS 17192.1 | ETA 14:03:04
Time 02:06:51 | Step 130513776 / 1000000001 | TPS 17185.1 | ETA 14:03:15
Time 02:07:01 | Step 130685585 / 1000000001 | TPS 17180.8 | ETA 14:03:17
Time 02:07:11 | Step 130857336 / 1000000001 | TPS 17175.1 | ETA 14:03:24
Time 02:07:21 | Step 131029044 / 1000000001 | TPS 17170.8 | ETA 14:03:27
Time 02:07:31 | Step 131200817 / 1000000001 | TPS 17177.3 | ETA 14:02:58
Time 02:07:41 | Step 131372547 / 1000000001 | TPS 17173 | ETA 14:03:01
Time 02:07:51 | Step 131544400 / 1000000001 | TPS 17185.2 | ETA 14:02:14
Time 02:08:01 | Step 131716282 / 1000000001 | TPS 17188.1 | ETA 14:01:56
Time 02:08:11 | Step 131887853 / 1000000001 | TPS 17157.1 | ETA 14:03:17
Time 02:08:21 | Step 132059592 / 1000000001 | TPS 17173.9 | ETA 14:02:18
Time 02:08:31 | Step 132231477 / 1000000001 | TPS 17188.4 | ETA 14:01:25
Time 02:08:41 | Step 132403415 / 1000000001 | TPS 17193.7 | ETA 14:01:00
Time 02:08:51 | Step 132575227 / 1000000001 | TPS 17181.1 | ETA 14:01:27
Time 02:09:01 | Step 132747117 / 1000000001 | TPS 17189 | ETA 14:00:53
Time 02:09:11 | Step 132918973 / 1000000001 | TPS 17185.6 | ETA 14:00:53
Time 02:09:21 | Step 133090846 / 1000000001 | TPS 17187.3 | ETA 14:00:39
Time 02:09:31 | Step 133262731 / 1000000001 | TPS 17188.4 | ETA 14:00:25
Time 02:09:41 | Step 133434618 / 1000000001 | TPS 17188.6 | ETA 14:00:14
Time 02:09:51 | Step 133606405 / 1000000001 | TPS 17178.7 | ETA 14:00:34
Time 02:10:01 | Step 133778089 / 1000000001 | TPS 17168.3 | ETA 14:00:54
Time 02:10:11 | Step 133950006 / 1000000001 | TPS 17191.6 | ETA 13:59:36
Time 02:10:21 | Step 134121910 / 1000000001 | TPS 17190.4 | ETA 13:59:29
Time 02:10:31 | Step 134293687 / 1000000001 | TPS 17177.6 | ETA 13:59:57
Time 02:10:41 | Step 134465470 / 1000000001 | TPS 17178.2 | ETA 13:59:45
Time 02:10:51 | Step 134637333 / 1000000001 | TPS 17186.2 | ETA 13:59:12
Time 02:11:01 | Step 134809190 / 1000000001 | TPS 17185.5 | ETA 13:59:04
Time 02:11:11 | Step 134981013 / 1000000001 | TPS 17182.2 | ETA 13:59:04
Time 02:11:21 | Step 135152701 / 1000000001 | TPS 17168.5 | ETA 13:59:34
Time 02:11:31 | Step 135324389 / 1000000001 | TPS 17168.7 | ETA 13:59:23
Time 02:11:41 | Step 135496197 / 1000000001 | TPS 17180.7 | ETA 13:58:38
Time 02:11:51 | Step 135668053 / 1000000001 | TPS 17185.6 | ETA 13:58:13
Time 02:12:01 | Step 135839891 / 1000000001 | TPS 17183.8 | ETA 13:58:09
Time 02:12:11 | Step 136011655 / 1000000001 | TPS 17176.4 | ETA 13:58:20
Time 02:12:21 | Step 136183404 / 1000000001 | TPS 17174.8 | ETA 13:58:15
Time 02:12:31 | Step 136355133 / 1000000001 | TPS 17172.7 | ETA 13:58:11
Time 02:12:41 | Step 136526945 / 1000000001 | TPS 17181.1 | ETA 13:57:37
Time 02:12:51 | Step 136698784 / 1000000001 | TPS 17183.9 | ETA 13:57:19
Time 02:13:01 | Step 136870588 / 1000000001 | TPS 17180.3 | ETA 13:57:19
Time 02:13:11 | Step 137042372 / 1000000001 | TPS 17178.4 | ETA 13:57:15
Time 02:13:21 | Step 137214054 / 1000000001 | TPS 17168.2 | ETA 13:57:34
Time 02:13:31 | Step 137385914 / 1000000001 | TPS 17185.9 | ETA 13:56:33
Time 02:13:41 | Step 137557831 / 1000000001 | TPS 17191.7 | ETA 13:56:06
Time 02:13:51 | Step 137729736 / 1000000001 | TPS 17190.4 | ETA 13:55:59
Time 02:14:01 | Step 137901526 / 1000000001 | TPS 17178.9 | ETA 13:56:23
Time 02:14:11 | Step 138073275 / 1000000001 | TPS 17174.8 | ETA 13:56:25
Time 02:14:21 | Step 138245198 / 1000000001 | TPS 17192.3 | ETA 13:55:24
Time 02:14:31 | Step 138417134 / 1000000001 | TPS 17193.6 | ETA 13:55:10
Time 02:14:41 | Step 138588996 / 1000000001 | TPS 17186.2 | ETA 13:55:22
Time 02:14:51 | Step 138760959 / 1000000001 | TPS 17196.3 | ETA 13:54:42
Time 02:15:01 | Step 138932971 / 1000000001 | TPS 17201.2 | ETA 13:54:18
Time 02:15:11 | Step 139104889 / 1000000001 | TPS 17191.7 | ETA 13:54:36
Time 02:15:21 | Step 139276672 / 1000000001 | TPS 17178.2 | ETA 13:55:05
Time 02:15:31 | Step 139448384 / 1000000001 | TPS 17171.2 | ETA 13:55:16
Time 02:15:41 | Step 139620246 / 1000000001 | TPS 17186.2 | ETA 13:54:22
Time 02:15:51 | Step 139792088 / 1000000001 | TPS 17184.1 | ETA 13:54:18
Time 02:16:01 | Step 139963811 / 1000000001 | TPS 17172.2 | ETA 13:54:42
Time 02:16:11 | Step 140135614 / 1000000001 | TPS 17180.3 | ETA 13:54:09
Time 02:16:21 | Step 140307436 / 1000000001 | TPS 17182.2 | ETA 13:53:53
Time 02:16:31 | Step 140479270 / 1000000001 | TPS 17183.3 | ETA 13:53:40
Time 02:16:41 | Step 140651106 / 1000000001 | TPS 17183.6 | ETA 13:53:29
Time 02:16:51 | Step 140823079 / 1000000001 | TPS 17197.3 | ETA 13:52:40
Time 02:17:01 | Step 140994983 / 1000000001 | TPS 17190.4 | ETA 13:52:50
Time 02:17:11 | Step 141166873 / 1000000001 | TPS 17189 | ETA 13:52:44
Time 02:17:21 | Step 141338614 / 1000000001 | TPS 17174.1 | ETA 13:53:17
Time 02:17:31 | Step 141510428 / 1000000001 | TPS 17181.3 | ETA 13:52:46
Time 02:17:41 | Step 141682257 / 1000000001 | TPS 17182.8 | ETA 13:52:32
Time 02:17:51 | Step 141854045 / 1000000001 | TPS 17178.7 | ETA 13:52:34
Time 02:18:01 | Step 142025747 / 1000000001 | TPS 17170.1 | ETA 13:52:48
Time 02:18:11 | Step 142197587 / 1000000001 | TPS 17183.8 | ETA 13:51:59
Time 02:18:21 | Step 142369378 / 1000000001 | TPS 17179.1 | ETA 13:52:02
Time 02:18:31 | Step 142541199 / 1000000001 | TPS 17182 | ETA 13:51:44
Time 02:18:41 | Step 142712982 / 1000000001 | TPS 17178.3 | ETA 13:51:45
Time 02:18:51 | Step 142884955 / 1000000001 | TPS 17197.2 | ETA 13:50:40
Time 02:19:01 | Step 143056821 / 1000000001 | TPS 17186.6 | ETA 13:51:01
Time 02:19:11 | Step 143228701 / 1000000001 | TPS 17187.8 | ETA 13:50:47
Time 02:19:21 | Step 143400383 / 1000000001 | TPS 17168.1 | ETA 13:51:34
Time 02:19:31 | Step 143572276 / 1000000001 | TPS 17189.2 | ETA 13:50:23
Time 02:19:41 | Step 143744247 / 1000000001 | TPS 17197 | ETA 13:49:50
Time 02:19:51 | Step 143916201 / 1000000001 | TPS 17195.4 | ETA 13:49:45
Time 02:20:01 | Step 144087981 / 1000000001 | TPS 17177.9 | ETA 13:50:26
Time 02:20:11 | Step 144259773 / 1000000001 | TPS 17179.2 | ETA 13:50:12
Time 02:20:21 | Step 144431536 / 1000000001 | TPS 17176.2 | ETA 13:50:11
Time 02:20:31 | Step 144603393 / 1000000001 | TPS 17185.6 | ETA 13:49:33
Time 02:20:41 | Step 144775271 / 1000000001 | TPS 17187.8 | ETA 13:49:17
Time 02:20:51 | Step 144947181 / 1000000001 | TPS 17191 | ETA 13:48:58
Time 02:21:01 | Step 145118849 / 1000000001 | TPS 17166.7 | ETA 13:49:58
Time 02:21:11 | Step 145290560 / 1000000001 | TPS 17171 | ETA 13:49:36
Time 02:21:21 | Step 145462319 / 1000000001 | TPS 17175.8 | ETA 13:49:12
Time 02:21:31 | Step 145634316 / 1000000001 | TPS 17199.6 | ETA 13:47:53
Time 02:21:41 | Step 145806285 / 1000000001 | TPS 17196.9 | ETA 13:47:51
Time 02:21:51 | Step 145978165 / 1000000001 | TPS 17187.9 | ETA 13:48:07
Time 02:22:01 | Step 146149891 / 1000000001 | TPS 17172.5 | ETA 13:48:41
Time 02:22:11 | Step 146321823 / 1000000001 | TPS 17193.2 | ETA 13:47:32
Time 02:22:21 | Step 146493831 / 1000000001 | TPS 17200.7 | ETA 13:47:00
Time 02:22:31 | Step 146665789 / 1000000001 | TPS 17195.8 | ETA 13:47:04
Time 02:22:41 | Step 146837672 / 1000000001 | TPS 17188.3 | ETA 13:47:16
Time 02:22:51 | Step 147009408 / 1000000001 | TPS 17173.5 | ETA 13:47:49
Time 02:23:01 | Step 147181209 / 1000000001 | TPS 17179.9 | ETA 13:47:20
Time 02:23:11 | Step 147353102 / 1000000001 | TPS 17189.2 | ETA 13:46:43
Time 02:23:21 | Step 147524904 / 1000000001 | TPS 17180.2 | ETA 13:46:59
Time 02:23:31 | Step 147696794 / 1000000001 | TPS 17188.9 | ETA 13:46:24
Time 02:23:41 | Step 147868700 / 1000000001 | TPS 17190.6 | ETA 13:46:09
Time 02:23:51 | Step 148040497 / 1000000001 | TPS 17179.7 | ETA 13:46:31
Time 02:24:01 | Step 148212330 / 1000000001 | TPS 17183.2 | ETA 13:46:10
Time 02:24:11 | Step 148384273 / 1000000001 | TPS 17194.1 | ETA 13:45:29
Time 02:24:21 | Step 148556105 / 1000000001 | TPS 17183.2 | ETA 13:45:51
Time 02:24:31 | Step 148727965 / 1000000001 | TPS 17186 | ETA 13:45:32
Time 02:24:41 | Step 148899808 / 1000000001 | TPS 17184.2 | ETA 13:45:27
Time 02:24:51 | Step 149071671 / 1000000001 | TPS 17186.3 | ETA 13:45:12
Time 02:25:01 | Step 149243700 / 1000000001 | TPS 17202.8 | ETA 13:44:14
Time 02:25:11 | Step 149415670 / 1000000001 | TPS 17197 | ETA 13:44:21
Time 02:25:21 | Step 149587449 / 1000000001 | TPS 17177.9 | ETA 13:45:06
Time 02:25:31 | Step 149759260 / 1000000001 | TPS 17180.9 | ETA 13:44:47
Time 02:25:41 | Step 149931171 / 1000000001 | TPS 17191.1 | ETA 13:44:08
Time 02:25:51 | Step 150103047 / 1000000001 | TPS 17187.6 | ETA 13:44:08
Time 02:26:01 | Step 150274946 / 1000000001 | TPS 17189.8 | ETA 13:43:51
Time 02:26:11 | Step 150446840 / 1000000001 | TPS 17189.4 | ETA 13:43:43
Time 02:26:21 | Step 150618585 / 1000000001 | TPS 17174.5 | ETA 13:44:16
Time 02:26:31 | Step 150790210 / 1000000001 | TPS 17162.5 | ETA 13:44:40
Time 02:26:41 | Step 150961879 / 1000000001 | TPS 17166.9 | ETA 13:44:17
Time 02:26:51 | Step 151133568 / 1000000001 | TPS 17168.9 | ETA 13:44:02
Time 02:27:01 | Step 151305319 / 1000000001 | TPS 17175.1 | ETA 13:43:34
Time 02:27:11 | Step 151477114 / 1000000001 | TPS 17179.4 | ETA 13:43:11
Time 02:27:21 | Step 151648853 / 1000000001 | TPS 17173.8 | ETA 13:43:17
Time 02:27:31 | Step 151820732 / 1000000001 | TPS 17187.9 | ETA 13:42:27
Time 02:27:41 | Step 151992499 / 1000000001 | TPS 17176.7 | ETA 13:42:49
Time 02:27:51 | Step 152164211 / 1000000001 | TPS 17171.2 | ETA 13:42:55
Time 02:28:01 | Step 152336025 / 1000000001 | TPS 17181.4 | ETA 13:42:16
Time 02:28:11 | Step 152507799 / 1000000001 | TPS 17177.3 | ETA 13:42:17
Time 02:28:21 | Step 152679651 / 1000000001 | TPS 17185.1 | ETA 13:41:45
Time 02:28:31 | Step 152851611 / 1000000001 | TPS 17196 | ETA 13:41:04
Time 02:28:41 | Step 153023488 / 1000000001 | TPS 17187.7 | ETA 13:41:18
Time 02:28:51 | Step 153195455 / 1000000001 | TPS 17196.7 | ETA 13:40:42
Time 02:29:01 | Step 153367387 / 1000000001 | TPS 17193.1 | ETA 13:40:42
Time 02:29:11 | Step 153539304 / 1000000001 | TPS 17191.6 | ETA 13:40:36
Time 02:29:21 | Step 153710876 / 1000000001 | TPS 17157.2 | ETA 13:42:05
Time 02:29:31 | Step 153882672 / 1000000001 | TPS 17179.5 | ETA 13:40:51
Time 02:29:41 | Step 154054407 / 1000000001 | TPS 17173.4 | ETA 13:40:58
Time 02:29:51 | Step 154226126 / 1000000001 | TPS 17171.9 | ETA 13:40:53
Time 02:30:01 | Step 154398002 / 1000000001 | TPS 17187.6 | ETA 13:39:58
Time 02:30:11 | Step 154569746 / 1000000001 | TPS 17174.4 | ETA 13:40:26
Time 02:30:21 | Step 154741530 / 1000000001 | TPS 17178.3 | ETA 13:40:04
Time 02:30:31 | Step 154913310 / 1000000001 | TPS 17178 | ETA 13:39:55
Time 02:30:41 | Step 155085048 / 1000000001 | TPS 17173.7 | ETA 13:39:58
Time 02:30:51 | Step 155257018 / 1000000001 | TPS 17197 | ETA 13:38:41
Time 02:31:01 | Step 155429012 / 1000000001 | TPS 17199.3 | ETA 13:38:24
Time 02:31:11 | Step 155600881 / 1000000001 | TPS 17186.9 | ETA 13:38:50
Time 02:31:21 | Step 155772565 / 1000000001 | TPS 17168.3 | ETA 13:39:33
Time 02:31:31 | Step 155944367 / 1000000001 | TPS 17180.2 | ETA 13:38:49
Time 02:31:41 | Step 156116078 / 1000000001 | TPS 17171.1 | ETA 13:39:05
Time 02:31:51 | Step 156287828 / 1000000001 | TPS 17175 | ETA 13:38:44
Time 02:32:01 | Step 156459602 / 1000000001 | TPS 17177.3 | ETA 13:38:27
Time 02:32:11 | Step 156631479 / 1000000001 | TPS 17187.7 | ETA 13:37:48
Time 02:32:21 | Step 156803333 / 1000000001 | TPS 17185.3 | ETA 13:37:44
Time 02:32:31 | Step 156975133 / 1000000001 | TPS 17179.9 | ETA 13:37:50
Time 02:32:41 | Step 157146854 / 1000000001 | TPS 17172.1 | ETA 13:38:02
Time 02:32:51 | Step 157318594 / 1000000001 | TPS 17173.9 | ETA 13:37:47
Time 02:33:01 | Step 157490294 / 1000000001 | TPS 17169.9 | ETA 13:37:48
Time 02:33:11 | Step 157661787 / 1000000001 | TPS 17149.2 | ETA 13:38:38
Time 02:33:21 | Step 157833407 / 1000000001 | TPS 17162 | ETA 13:37:51
Time 02:33:31 | Step 158005045 / 1000000001 | TPS 17163.8 | ETA 13:37:36
Time 02:33:41 | Step 158176815 / 1000000001 | TPS 17176.9 | ETA 13:36:48
Time 02:33:51 | Step 158348567 / 1000000001 | TPS 17175.2 | ETA 13:36:44
Time 02:34:01 | Step 158520328 / 1000000001 | TPS 17176.1 | ETA 13:36:31
Time 02:34:11 | Step 158692016 / 1000000001 | TPS 17168.7 | ETA 13:36:42
Time 02:34:21 | Step 158863809 / 1000000001 | TPS 17179.1 | ETA 13:36:02
Time 02:34:31 | Step 159035569 / 1000000001 | TPS 17176 | ETA 13:36:01
Time 02:34:41 | Step 159207408 / 1000000001 | TPS 17183.9 | ETA 13:35:29
Time 02:34:51 | Step 159379202 / 1000000001 | TPS 17179.3 | ETA 13:35:32
Time 02:35:01 | Step 159551016 / 1000000001 | TPS 17181.2 | ETA 13:35:16
Time 02:35:11 | Step 159722701 / 1000000001 | TPS 17168.1 | ETA 13:35:43
Time 02:35:21 | Step 159894326 / 1000000001 | TPS 17162.4 | ETA 13:35:50
Time 02:35:31 | Step 160065901 / 1000000001 | TPS 17157.4 | ETA 13:35:54
Time 02:35:41 | Step 160237591 / 1000000001 | TPS 17168.9 | ETA 13:35:11
Time 02:35:51 | Step 160409400 / 1000000001 | TPS 17180.8 | ETA 13:34:27
Time 02:36:01 | Step 160581227 / 1000000001 | TPS 17182.6 | ETA 13:34:12
Time 02:36:11 | Step 160753091 / 1000000001 | TPS 17186.4 | ETA 13:33:52
Time 02:36:21 | Step 160925024 / 1000000001 | TPS 17193.2 | ETA 13:33:22
Time 02:36:31 | Step 161096823 / 1000000001 | TPS 17179.8 | ETA 13:33:50
Time 02:36:41 | Step 161268489 / 1000000001 | TPS 17166.5 | ETA 13:34:18
Time 02:36:51 | Step 161440177 / 1000000001 | TPS 17168.7 | ETA 13:34:02
Time 02:37:01 | Step 161611643 / 1000000001 | TPS 17146.5 | ETA 13:34:55
Time 02:37:11 | Step 161783562 / 1000000001 | TPS 17191.8 | ETA 13:32:36
Time 02:37:21 | Step 161955544 / 1000000001 | TPS 17198.2 | ETA 13:32:08
Time 02:37:31 | Step 162127362 / 1000000001 | TPS 17181.6 | ETA 13:32:45
Time 02:37:41 | Step 162299161 / 1000000001 | TPS 17179.9 | ETA 13:32:40
Time 02:37:51 | Step 162471038 / 1000000001 | TPS 17187.7 | ETA 13:32:08
Time 02:38:01 | Step 162643034 / 1000000001 | TPS 17199.6 | ETA 13:31:24
Time 02:38:11 | Step 162814925 / 1000000001 | TPS 17189.1 | ETA 13:31:44
Time 02:38:21 | Step 162986685 / 1000000001 | TPS 17175.9 | ETA 13:32:11
Time 02:38:31 | Step 163158392 / 1000000001 | TPS 17170.7 | ETA 13:32:16
Time 02:38:41 | Step 163330172 / 1000000001 | TPS 17178 | ETA 13:31:45
Time 02:38:51 | Step 163501948 / 1000000001 | TPS 17177.6 | ETA 13:31:37
Time 02:39:01 | Step 163673432 / 1000000001 | TPS 17148.4 | ETA 13:32:50
Time 02:39:11 | Step 163845122 / 1000000001 | TPS 17169 | ETA 13:31:41
Time 02:39:21 | Step 164016754 / 1000000001 | TPS 17163 | ETA 13:31:48
Time 02:39:31 | Step 164188484 / 1000000001 | TPS 17173 | ETA 13:31:10
Time 02:39:41 | Step 164360232 / 1000000001 | TPS 17174.7 | ETA 13:30:55
Time 02:39:51 | Step 164532098 / 1000000001 | TPS 17186.5 | ETA 13:30:11
Time 02:40:01 | Step 164703922 / 1000000001 | TPS 17182.3 | ETA 13:30:13
Time 02:40:11 | Step 164875723 / 1000000001 | TPS 17180.1 | ETA 13:30:10
Time 02:40:21 | Step 165047449 / 1000000001 | TPS 17172.6 | ETA 13:30:21
Time 02:40:31 | Step 165219210 / 1000000001 | TPS 17176.1 | ETA 13:30:01
Time 02:40:41 | Step 165391129 / 1000000001 | TPS 17191.7 | ETA 13:29:07
Time 02:40:51 | Step 165563062 / 1000000001 | TPS 17193.3 | ETA 13:28:52
Time 02:41:01 | Step 165734816 / 1000000001 | TPS 17175.4 | ETA 13:29:33
Time 02:41:11 | Step 165906543 / 1000000001 | TPS 17172.5 | ETA 13:29:31
Time 02:41:21 | Step 166078210 / 1000000001 | TPS 17166.6 | ETA 13:29:38
Time 02:41:31 | Step 166249954 / 1000000001 | TPS 17174.3 | ETA 13:29:06
Time 02:41:41 | Step 166421822 / 1000000001 | TPS 17186.6 | ETA 13:28:21
Time 02:41:51 | Step 166593640 / 1000000001 | TPS 17181.8 | ETA 13:28:25
Time 02:42:01 | Step 166765395 / 1000000001 | TPS 17175.4 | ETA 13:28:33
Time 02:42:11 | Step 166937243 / 1000000001 | TPS 17184.8 | ETA 13:27:56
Time 02:42:21 | Step 167108877 / 1000000001 | TPS 17163.3 | ETA 13:28:47
Time 02:42:31 | Step 167280532 / 1000000001 | TPS 17165.4 | ETA 13:28:31
Time 02:42:41 | Step 167452218 / 1000000001 | TPS 17168.5 | ETA 13:28:12
Time 02:42:51 | Step 167623596 / 1000000001 | TPS 17137.8 | ETA 13:29:29
Time 02:43:01 | Step 167795319 / 1000000001 | TPS 17172.3 | ETA 13:27:42
Time 02:43:11 | Step 167967087 / 1000000001 | TPS 17176.8 | ETA 13:27:19
Time 02:43:21 | Step 168138883 / 1000000001 | TPS 17179.5 | ETA 13:27:01
Time 02:43:31 | Step 168310574 / 1000000001 | TPS 17169.1 | ETA 13:27:21
Time 02:43:41 | Step 168482342 / 1000000001 | TPS 17176.7 | ETA 13:26:49
Time 02:43:51 | Step 168654211 / 1000000001 | TPS 17186.9 | ETA 13:26:11
Time 02:44:01 | Step 168826020 / 1000000001 | TPS 17180.8 | ETA 13:26:18
Time 02:44:11 | Step 168997726 / 1000000001 | TPS 17170.6 | ETA 13:26:36
Time 02:44:21 | Step 169169370 / 1000000001 | TPS 17164.4 | ETA 13:26:44
Time 02:44:31 | Step 169341249 / 1000000001 | TPS 17187.9 | ETA 13:25:28
Time 02:44:41 | Step 169513004 / 1000000001 | TPS 17175.5 | ETA 13:25:53
Time 02:44:51 | Step 169684882 / 1000000001 | TPS 17187.7 | ETA 13:25:08
Time 02:45:01 | Step 169856824 / 1000000001 | TPS 17194.2 | ETA 13:24:40
Time 02:45:11 | Step 170028670 / 1000000001 | TPS 17184.5 | ETA 13:24:57
Time 02:45:21 | Step 170200631 / 1000000001 | TPS 17196 | ETA 13:24:15
Time 02:45:31 | Step 170372487 / 1000000001 | TPS 17185.6 | ETA 13:24:34
Time 02:45:41 | Step 170544490 / 1000000001 | TPS 17200.2 | ETA 13:23:43
Time 02:45:51 | Step 170716284 / 1000000001 | TPS 17179.4 | ETA 13:24:32
Time 02:46:01 | Step 170888039 / 1000000001 | TPS 17175.4 | ETA 13:24:33
Time 02:46:11 | Step 171059717 / 1000000001 | TPS 17167.7 | ETA 13:24:44
Time 02:46:21 | Step 171231700 / 1000000001 | TPS 17198.3 | ETA 13:23:09
Time 02:46:31 | Step 171403698 / 1000000001 | TPS 17199.8 | ETA 13:22:54
Time 02:46:41 | Step 171575522 / 1000000001 | TPS 17182.4 | ETA 13:23:33
Time 02:46:51 | Step 171747293 / 1000000001 | TPS 17177.1 | ETA 13:23:38
Time 02:47:01 | Step 171919159 / 1000000001 | TPS 17186.5 | ETA 13:23:02
Time 02:47:11 | Step 172091031 / 1000000001 | TPS 17187.2 | ETA 13:22:50
Time 02:47:21 | Step 172262772 / 1000000001 | TPS 17174.1 | ETA 13:23:16
Time 02:47:31 | Step 172434559 / 1000000001 | TPS 17178.6 | ETA 13:22:54
Time 02:47:41 | Step 172606341 / 1000000001 | TPS 17178.1 | ETA 13:22:45
Time 02:47:51 | Step 172778174 / 1000000001 | TPS 17183.3 | ETA 13:22:21
Time 02:48:01 | Step 172950001 / 1000000001 | TPS 17182.5 | ETA 13:22:13
Time 02:48:11 | Step 173121731 / 1000000001 | TPS 17173 | ETA 13:22:29
Time 02:48:21 | Step 173293507 / 1000000001 | TPS 17177.6 | ETA 13:22:07
Time 02:48:31 | Step 173465523 / 1000000001 | TPS 17201.5 | ETA 13:20:50
Time 02:48:41 | Step 173637517 / 1000000001 | TPS 17199.3 | ETA 13:20:46
Time 02:48:51 | Step 173809182 / 1000000001 | TPS 17166.5 | ETA 13:22:08
Time 02:49:01 | Step 173980934 / 1000000001 | TPS 17175 | ETA 13:21:34
Time 02:49:11 | Step 174152715 / 1000000001 | TPS 17178.1 | ETA 13:21:15
Time 02:49:21 | Step 174324668 / 1000000001 | TPS 17195.3 | ETA 13:20:17
Time 02:49:31 | Step 174496540 / 1000000001 | TPS 17187.2 | ETA 13:20:30
Time 02:49:41 | Step 174668330 / 1000000001 | TPS 17179 | ETA 13:20:43
[...]
Time 15:26:01 | Step 953981172 / 1000000001 | TPS 17184 | ETA 00:44:38
Time 15:26:11 | Step 954152793 / 1000000001 | TPS 17162 | ETA 00:44:31
Time 15:26:21 | Step 954324678 / 1000000001 | TPS 17188.4 | ETA 00:44:17
Time 15:26:31 | Step 954496495 / 1000000001 | TPS 17181.7 | ETA 00:44:08
Time 15:26:41 | Step 954668303 / 1000000001 | TPS 17180.8 | ETA 00:43:58
Time 15:26:51 | Step 954840009 / 1000000001 | TPS 17170.6 | ETA 00:43:50
Time 15:27:01 | Step 955011716 / 1000000001 | TPS 17170.6 | ETA 00:43:40
Time 15:27:11 | Step 955183503 / 1000000001 | TPS 17178.7 | ETA 00:43:28
Time 15:27:21 | Step 955355336 / 1000000001 | TPS 17183.3 | ETA 00:43:18
Time 15:27:31 | Step 955527177 / 1000000001 | TPS 17184 | ETA 00:43:08
Time 15:27:41 | Step 955698924 / 1000000001 | TPS 17174.6 | ETA 00:42:59
Time 15:27:51 | Step 955870859 / 1000000001 | TPS 17193.4 | ETA 00:42:46
Time 15:28:01 | Step 956042505 / 1000000001 | TPS 17164.6 | ETA 00:42:40
Time 15:28:11 | Step 956214343 / 1000000001 | TPS 17183.8 | ETA 00:42:28
Time 15:28:21 | Step 956386241 / 1000000001 | TPS 17189.7 | ETA 00:42:17
Time 15:28:31 | Step 956558041 / 1000000001 | TPS 17180 | ETA 00:42:08
Time 15:28:41 | Step 956729640 / 1000000001 | TPS 17159.9 | ETA 00:42:01
Time 15:28:51 | Step 956901425 / 1000000001 | TPS 17178.4 | ETA 00:41:48
Time 15:29:01 | Step 957073088 / 1000000001 | TPS 17166.2 | ETA 00:41:40
Time 15:29:11 | Step 957244910 / 1000000001 | TPS 17182.2 | ETA 00:41:28
Time 15:29:21 | Step 957416692 / 1000000001 | TPS 17178.1 | ETA 00:41:18
Time 15:29:31 | Step 957588545 / 1000000001 | TPS 17185.3 | ETA 00:41:07
Time 15:29:41 | Step 957760256 / 1000000001 | TPS 17171 | ETA 00:40:59
Time 15:29:51 | Step 957932003 / 1000000001 | TPS 17174.7 | ETA 00:40:49
Time 15:30:01 | Step 958103536 / 1000000001 | TPS 17153.2 | ETA 00:40:42
Time 15:30:11 | Step 958275426 / 1000000001 | TPS 17189 | ETA 00:40:27
Time 15:30:21 | Step 958447258 / 1000000001 | TPS 17183.1 | ETA 00:40:18
Time 15:30:31 | Step 958619051 / 1000000001 | TPS 17179.2 | ETA 00:40:08
Time 15:30:41 | Step 958790842 / 1000000001 | TPS 17179.1 | ETA 00:39:58
Time 15:30:51 | Step 958962668 / 1000000001 | TPS 17182.5 | ETA 00:39:48
Time 15:31:01 | Step 959134340 / 1000000001 | TPS 17167.1 | ETA 00:39:40
Time 15:31:11 | Step 959306149 / 1000000001 | TPS 17180.9 | ETA 00:39:28
Time 15:31:21 | Step 959477928 / 1000000001 | TPS 17177.8 | ETA 00:39:18
Time 15:31:31 | Step 959649749 / 1000000001 | TPS 17182.1 | ETA 00:39:08
Time 15:31:41 | Step 959821558 / 1000000001 | TPS 17180.8 | ETA 00:38:58
Time 15:31:51 | Step 959993472 / 1000000001 | TPS 17191.4 | ETA 00:38:47
Time 15:32:01 | Step 960165228 / 1000000001 | TPS 17175.6 | ETA 00:38:39
Time 15:32:11 | Step 960336933 / 1000000001 | TPS 17170.5 | ETA 00:38:29
Time 15:32:21 | Step 960508772 / 1000000001 | TPS 17183.8 | ETA 00:38:18
Time 15:32:31 | Step 960680561 / 1000000001 | TPS 17178.8 | ETA 00:38:08
Time 15:32:41 | Step 960852312 / 1000000001 | TPS 17175.1 | ETA 00:37:59
Time 15:32:51 | Step 961024113 / 1000000001 | TPS 17180.1 | ETA 00:37:48
Time 15:33:01 | Step 961195911 / 1000000001 | TPS 17179.6 | ETA 00:37:38
Time 15:33:11 | Step 961367542 / 1000000001 | TPS 17163 | ETA 00:37:30
Time 15:33:21 | Step 961539227 / 1000000001 | TPS 17168.4 | ETA 00:37:20
Time 15:33:31 | Step 961711007 / 1000000001 | TPS 17177.9 | ETA 00:37:08
Time 15:33:41 | Step 961882852 / 1000000001 | TPS 17184.5 | ETA 00:36:58
Time 15:33:51 | Step 962054532 / 1000000001 | TPS 17168 | ETA 00:36:50
Time 15:34:01 | Step 962226155 / 1000000001 | TPS 17162.2 | ETA 00:36:40
Time 15:34:11 | Step 962397994 / 1000000001 | TPS 17183.9 | ETA 00:36:28
Time 15:34:21 | Step 962569909 / 1000000001 | TPS 17191.4 | ETA 00:36:17
Time 15:34:31 | Step 962741845 / 1000000001 | TPS 17193.4 | ETA 00:36:06
Time 15:34:41 | Step 962913713 / 1000000001 | TPS 17186.8 | ETA 00:35:57
Time 15:34:51 | Step 963084393 / 1000000001 | TPS 17068 | ETA 00:36:02
Time 15:35:01 | Step 963256146 / 1000000001 | TPS 17175.3 | ETA 00:35:39
Time 15:35:11 | Step 963427897 / 1000000001 | TPS 17175 | ETA 00:35:29
Time 15:35:21 | Step 963599614 / 1000000001 | TPS 17171.7 | ETA 00:35:19
Time 15:35:31 | Step 963771246 / 1000000001 | TPS 17163.2 | ETA 00:35:10
Time 15:35:41 | Step 963942959 / 1000000001 | TPS 17171.2 | ETA 00:34:59
Time 15:35:51 | Step 964114575 / 1000000001 | TPS 17161.5 | ETA 00:34:51
Time 15:36:01 | Step 964286244 / 1000000001 | TPS 17166.9 | ETA 00:34:40
Time 15:36:11 | Step 964457876 / 1000000001 | TPS 17163.2 | ETA 00:34:30
Time 15:36:21 | Step 964629572 / 1000000001 | TPS 17169.6 | ETA 00:34:20
Time 15:36:31 | Step 964801325 / 1000000001 | TPS 17175.2 | ETA 00:34:09
Time 15:36:41 | Step 964973143 / 1000000001 | TPS 17181.8 | ETA 00:33:58
Time 15:36:51 | Step 965144623 / 1000000001 | TPS 17147.9 | ETA 00:33:52
Time 15:37:01 | Step 965316413 / 1000000001 | TPS 17178.9 | ETA 00:33:38
Time 15:37:11 | Step 965488076 / 1000000001 | TPS 17166.2 | ETA 00:33:30
Time 15:37:21 | Step 965659882 / 1000000001 | TPS 17180.6 | ETA 00:33:18
Time 15:37:31 | Step 965831495 / 1000000001 | TPS 17161.2 | ETA 00:33:11
Time 15:37:41 | Step 966001967 / 1000000001 | TPS 17047.2 | ETA 00:33:14
Time 15:37:51 | Step 966173717 / 1000000001 | TPS 17174.9 | ETA 00:32:49
Time 15:38:01 | Step 966345329 / 1000000001 | TPS 17161.2 | ETA 00:32:41
Time 15:38:11 | Step 966517146 / 1000000001 | TPS 17181.6 | ETA 00:32:28
Time 15:38:21 | Step 966688968 / 1000000001 | TPS 17182.2 | ETA 00:32:18
Time 15:38:31 | Step 966860659 / 1000000001 | TPS 17169.1 | ETA 00:32:10
Time 15:38:41 | Step 967032303 / 1000000001 | TPS 17164.3 | ETA 00:32:00
Time 15:38:51 | Step 967204105 / 1000000001 | TPS 17180.2 | ETA 00:31:48
Time 15:39:01 | Step 967375776 / 1000000001 | TPS 17167 | ETA 00:31:40
Time 15:39:11 | Step 967547376 / 1000000001 | TPS 17160 | ETA 00:31:31
Time 15:39:21 | Step 967719188 / 1000000001 | TPS 17181.2 | ETA 00:31:18
Time 15:39:31 | Step 967891089 / 1000000001 | TPS 17190.1 | ETA 00:31:07
Time 15:39:41 | Step 968062721 / 1000000001 | TPS 17163.1 | ETA 00:31:00
Time 15:39:51 | Step 968234201 / 1000000001 | TPS 17148 | ETA 00:30:52
Time 15:40:01 | Step 968405946 / 1000000001 | TPS 17174.5 | ETA 00:30:39
Time 15:40:11 | Step 968577779 / 1000000001 | TPS 17183.3 | ETA 00:30:28
Time 15:40:21 | Step 968749647 / 1000000001 | TPS 17186.8 | ETA 00:30:18
Time 15:40:31 | Step 968921456 / 1000000001 | TPS 17180.9 | ETA 00:30:08
Time 15:40:41 | Step 969093197 / 1000000001 | TPS 17173.9 | ETA 00:29:59
Time 15:40:51 | Step 969264957 / 1000000001 | TPS 17175.9 | ETA 00:29:49
Time 15:41:01 | Step 969436656 / 1000000001 | TPS 17169.8 | ETA 00:29:40
Time 15:41:11 | Step 969608513 / 1000000001 | TPS 17185.7 | ETA 00:29:28
Time 15:41:21 | Step 969780353 / 1000000001 | TPS 17183.9 | ETA 00:29:18
Time 15:41:31 | Step 969952190 / 1000000001 | TPS 17183.6 | ETA 00:29:08
Time 15:41:41 | Step 970123927 / 1000000001 | TPS 17173.7 | ETA 00:28:59
Time 15:41:51 | Step 970295606 / 1000000001 | TPS 17167.8 | ETA 00:28:50
Time 15:42:01 | Step 970467482 / 1000000001 | TPS 17187.4 | ETA 00:28:38
Time 15:42:11 | Step 970639176 / 1000000001 | TPS 17169.3 | ETA 00:28:30
Time 15:42:21 | Step 970810973 / 1000000001 | TPS 17179.6 | ETA 00:28:19
Time 15:42:31 | Step 970982870 / 1000000001 | TPS 17189.6 | ETA 00:28:08
Time 15:42:41 | Step 971154541 / 1000000001 | TPS 17167.1 | ETA 00:28:00
Time 15:42:51 | Step 971326231 / 1000000001 | TPS 17169 | ETA 00:27:50
Time 15:43:01 | Step 971498119 / 1000000001 | TPS 17188.7 | ETA 00:27:38
Time 15:43:11 | Step 971669950 / 1000000001 | TPS 17183.1 | ETA 00:27:28
Time 15:43:21 | Step 971841726 / 1000000001 | TPS 17177.5 | ETA 00:27:19
Time 15:43:31 | Step 972013485 / 1000000001 | TPS 17175.9 | ETA 00:27:09
Time 15:43:41 | Step 972185275 / 1000000001 | TPS 17178.9 | ETA 00:26:59
Time 15:43:51 | Step 972356902 / 1000000001 | TPS 17162.6 | ETA 00:26:50
Time 15:44:01 | Step 972528659 / 1000000001 | TPS 17175.7 | ETA 00:26:39
Time 15:44:11 | Step 972700530 / 1000000001 | TPS 17187 | ETA 00:26:28
Time 15:44:21 | Step 972872431 / 1000000001 | TPS 17190.1 | ETA 00:26:18
Time 15:44:31 | Step 973043991 / 1000000001 | TPS 17156 | ETA 00:26:11
Time 15:44:41 | Step 973215762 / 1000000001 | TPS 17177 | ETA 00:25:59
Time 15:44:51 | Step 973387509 / 1000000001 | TPS 17174.7 | ETA 00:25:49
Time 15:45:01 | Step 973559150 / 1000000001 | TPS 17164.1 | ETA 00:25:40
Time 15:45:11 | Step 973730973 / 1000000001 | TPS 17182.2 | ETA 00:25:28
Time 15:45:21 | Step 973902785 / 1000000001 | TPS 17181 | ETA 00:25:18
Time 15:45:31 | Step 974074547 / 1000000001 | TPS 17176.1 | ETA 00:25:09
Time 15:45:41 | Step 974246336 / 1000000001 | TPS 17178.7 | ETA 00:24:59
Time 15:45:51 | Step 974417958 / 1000000001 | TPS 17162.2 | ETA 00:24:50
Time 15:46:01 | Step 974589661 / 1000000001 | TPS 17170.3 | ETA 00:24:39
Time 15:46:11 | Step 974761480 / 1000000001 | TPS 17181.8 | ETA 00:24:28
Time 15:46:21 | Step 974933274 / 1000000001 | TPS 17179.4 | ETA 00:24:19
Time 15:46:31 | Step 975105049 / 1000000001 | TPS 17177.5 | ETA 00:24:09
Time 15:46:41 | Step 975276842 / 1000000001 | TPS 17179.2 | ETA 00:23:59
Time 15:46:51 | Step 975448679 / 1000000001 | TPS 17183.6 | ETA 00:23:48
Time 15:47:01 | Step 975620404 / 1000000001 | TPS 17172.4 | ETA 00:23:39
Time 15:47:11 | Step 975792005 / 1000000001 | TPS 17160 | ETA 00:23:30
Time 15:47:21 | Step 975963798 / 1000000001 | TPS 17179.3 | ETA 00:23:19
Time 15:47:31 | Step 976133030 / 1000000001 | TPS 16923.2 | ETA 00:23:30
Time 15:47:41 | Step 976304991 / 1000000001 | TPS 17196 | ETA 00:22:57
Time 15:47:51 | Step 976476608 / 1000000001 | TPS 17161.7 | ETA 00:22:50
Time 15:48:01 | Step 976648338 / 1000000001 | TPS 17173 | ETA 00:22:39
Time 15:48:11 | Step 976820208 / 1000000001 | TPS 17186.9 | ETA 00:22:28
Time 15:48:21 | Step 976992001 / 1000000001 | TPS 17179.1 | ETA 00:22:19
Time 15:48:31 | Step 977162078 / 1000000001 | TPS 17007.7 | ETA 00:22:22
Time 15:48:41 | Step 977333873 / 1000000001 | TPS 17179.4 | ETA 00:21:59
Time 15:48:51 | Step 977505712 / 1000000001 | TPS 17183.8 | ETA 00:21:49
Time 15:49:01 | Step 977677429 / 1000000001 | TPS 17171.7 | ETA 00:21:39
Time 15:49:11 | Step 977849170 / 1000000001 | TPS 17174.1 | ETA 00:21:29
Time 15:49:21 | Step 978020917 / 1000000001 | TPS 17174.7 | ETA 00:21:19
Time 15:49:31 | Step 978192802 / 1000000001 | TPS 17188.4 | ETA 00:21:08
Time 15:49:41 | Step 978364617 / 1000000001 | TPS 17181.5 | ETA 00:20:59
Time 15:49:51 | Step 978536373 / 1000000001 | TPS 17175.6 | ETA 00:20:49
Time 15:50:01 | Step 978707975 / 1000000001 | TPS 17160.2 | ETA 00:20:40
Time 15:50:11 | Step 978879775 / 1000000001 | TPS 17180 | ETA 00:20:29
Time 15:50:21 | Step 979051535 / 1000000001 | TPS 17176 | ETA 00:20:19
Time 15:50:31 | Step 979223319 / 1000000001 | TPS 17178.4 | ETA 00:20:09
Time 15:50:41 | Step 979395092 / 1000000001 | TPS 17177.1 | ETA 00:19:59
Time 15:50:51 | Step 979566836 / 1000000001 | TPS 17174.4 | ETA 00:19:49
Time 15:51:01 | Step 979738556 / 1000000001 | TPS 17172 | ETA 00:19:39
Time 15:51:11 | Step 979910331 / 1000000001 | TPS 17177.5 | ETA 00:19:29
Time 15:51:21 | Step 980080047 / 1000000001 | TPS 16971.5 | ETA 00:19:33
Time 15:51:31 | Step 980251675 / 1000000001 | TPS 17162.8 | ETA 00:19:10
Time 15:51:41 | Step 980423303 / 1000000001 | TPS 17162.7 | ETA 00:19:00
Time 15:51:51 | Step 980594971 / 1000000001 | TPS 17166.6 | ETA 00:18:50
Time 15:52:01 | Step 980766483 / 1000000001 | TPS 17151.2 | ETA 00:18:41
Time 15:52:11 | Step 980938209 / 1000000001 | TPS 17172.5 | ETA 00:18:30
Time 15:52:21 | Step 981109863 / 1000000001 | TPS 17165.3 | ETA 00:18:20
Time 15:52:31 | Step 981281530 / 1000000001 | TPS 17166.7 | ETA 00:18:10
Time 15:52:41 | Step 981452587 / 1000000001 | TPS 17105.6 | ETA 00:18:04
Time 15:52:51 | Step 981624350 / 1000000001 | TPS 17176.3 | ETA 00:17:49
Time 15:53:01 | Step 981796140 / 1000000001 | TPS 17179 | ETA 00:17:39
Time 15:53:11 | Step 981967903 / 1000000001 | TPS 17176.2 | ETA 00:17:29
Time 15:53:21 | Step 982139458 / 1000000001 | TPS 17155.5 | ETA 00:17:21
Time 15:53:31 | Step 982311141 / 1000000001 | TPS 17168.3 | ETA 00:17:10
Time 15:53:41 | Step 982482907 / 1000000001 | TPS 17176.6 | ETA 00:16:59
Time 15:53:51 | Step 982654530 / 1000000001 | TPS 17162.2 | ETA 00:16:50
Time 15:54:01 | Step 982826232 / 1000000001 | TPS 17170.1 | ETA 00:16:40
Time 15:54:11 | Step 982997857 / 1000000001 | TPS 17162.5 | ETA 00:16:30
Time 15:54:21 | Step 983169524 / 1000000001 | TPS 17166.7 | ETA 00:16:20
Time 15:54:31 | Step 983341362 / 1000000001 | TPS 17183.8 | ETA 00:16:09
Time 15:54:41 | Step 983513246 / 1000000001 | TPS 17188.3 | ETA 00:15:59
Time 15:54:51 | Step 983684905 / 1000000001 | TPS 17165.9 | ETA 00:15:50
Time 15:55:01 | Step 983856749 / 1000000001 | TPS 17184.4 | ETA 00:15:39
Time 15:55:11 | Step 984028430 / 1000000001 | TPS 17168.1 | ETA 00:15:30
Time 15:55:21 | Step 984200077 / 1000000001 | TPS 17164.6 | ETA 00:15:20
Time 15:55:31 | Step 984371762 / 1000000001 | TPS 17168.5 | ETA 00:15:10
Time 15:55:41 | Step 984543543 / 1000000001 | TPS 17178.1 | ETA 00:14:59
Time 15:55:51 | Step 984715165 / 1000000001 | TPS 17162.1 | ETA 00:14:50
Time 15:56:01 | Step 984886850 / 1000000001 | TPS 17168.4 | ETA 00:14:40
Time 15:56:11 | Step 985057671 / 1000000001 | TPS 17082.1 | ETA 00:14:34
Time 15:56:21 | Step 985229307 / 1000000001 | TPS 17163.5 | ETA 00:14:20
Time 15:56:31 | Step 985401067 / 1000000001 | TPS 17175.9 | ETA 00:14:09
Time 15:56:41 | Step 985572790 / 1000000001 | TPS 17172.1 | ETA 00:14:00
Time 15:56:51 | Step 985744471 / 1000000001 | TPS 17168 | ETA 00:13:50
Time 15:57:01 | Step 985916173 / 1000000001 | TPS 17170.1 | ETA 00:13:40
Time 15:57:11 | Step 986087043 / 1000000001 | TPS 17087 | ETA 00:13:34
Time 15:57:21 | Step 986258808 / 1000000001 | TPS 17176.5 | ETA 00:13:20
Time 15:57:31 | Step 986430611 / 1000000001 | TPS 17180.3 | ETA 00:13:09
Time 15:57:41 | Step 986602505 / 1000000001 | TPS 17189.4 | ETA 00:12:59
Time 15:57:51 | Step 986774199 / 1000000001 | TPS 17169.4 | ETA 00:12:50
Time 15:58:01 | Step 986946001 / 1000000001 | TPS 17180 | ETA 00:12:39
Time 15:58:11 | Step 987117693 / 1000000001 | TPS 17169.2 | ETA 00:12:30
Time 15:58:21 | Step 987289366 / 1000000001 | TPS 17167.3 | ETA 00:12:20
Time 15:58:31 | Step 987461119 / 1000000001 | TPS 17175.2 | ETA 00:12:10
Time 15:58:41 | Step 987632975 / 1000000001 | TPS 17185.6 | ETA 00:11:59
Time 15:58:51 | Step 987804923 / 1000000001 | TPS 17194.8 | ETA 00:11:49
Time 15:59:01 | Step 987976888 / 1000000001 | TPS 17196.5 | ETA 00:11:39
Time 15:59:11 | Step 988148414 / 1000000001 | TPS 17152.6 | ETA 00:11:30
Time 15:59:21 | Step 988320165 / 1000000001 | TPS 17175.1 | ETA 00:11:20
Time 15:59:31 | Step 988492022 / 1000000001 | TPS 17185.5 | ETA 00:11:09
Time 15:59:41 | Step 988663847 / 1000000001 | TPS 17182.4 | ETA 00:10:59
Time 15:59:51 | Step 988835554 / 1000000001 | TPS 17170.6 | ETA 00:10:50
Time 16:00:01 | Step 989004867 / 1000000001 | TPS 16931.3 | ETA 00:10:49
Time 16:00:11 | Step 989176632 / 1000000001 | TPS 17176.4 | ETA 00:10:30
Time 16:00:21 | Step 989348314 / 1000000001 | TPS 17168.2 | ETA 00:10:20
Time 16:00:31 | Step 989519909 / 1000000001 | TPS 17159.4 | ETA 00:10:10
Time 16:00:41 | Step 989691464 / 1000000001 | TPS 17155.5 | ETA 00:10:00
Time 16:00:51 | Step 989863315 / 1000000001 | TPS 17185 | ETA 00:09:49
Time 16:01:01 | Step 990031753 / 1000000001 | TPS 16843.8 | ETA 00:09:51
Time 16:01:11 | Step 990203493 / 1000000001 | TPS 17173.9 | ETA 00:09:30
Time 16:01:21 | Step 990375169 / 1000000001 | TPS 17167.4 | ETA 00:09:20
Time 16:01:31 | Step 990546855 / 1000000001 | TPS 17168.5 | ETA 00:09:10
Time 16:01:41 | Step 990718689 / 1000000001 | TPS 17183.3 | ETA 00:09:00
Time 16:01:51 | Step 990890401 / 1000000001 | TPS 17171 | ETA 00:08:50
Time 16:02:01 | Step 991062093 / 1000000001 | TPS 17169.2 | ETA 00:08:40
Time 16:02:11 | Step 991233867 / 1000000001 | TPS 17177.4 | ETA 00:08:30
Time 16:02:21 | Step 991405658 / 1000000001 | TPS 17179 | ETA 00:08:20
Time 16:02:31 | Step 991577562 / 1000000001 | TPS 17190.4 | ETA 00:08:09
Time 16:02:41 | Step 991749387 / 1000000001 | TPS 17182.5 | ETA 00:08:00
Time 16:02:51 | Step 991921261 / 1000000001 | TPS 17187.3 | ETA 00:07:50
Time 16:03:01 | Step 992092411 / 1000000001 | TPS 17115 | ETA 00:07:42
Time 16:03:11 | Step 992264129 / 1000000001 | TPS 17171.8 | ETA 00:07:30
Time 16:03:21 | Step 992435916 / 1000000001 | TPS 17178.6 | ETA 00:07:20
Time 16:03:31 | Step 992607709 / 1000000001 | TPS 17179.3 | ETA 00:07:10
Time 16:03:41 | Step 992779498 / 1000000001 | TPS 17178.9 | ETA 00:07:00
Time 16:03:51 | Step 992951095 / 1000000001 | TPS 17159.7 | ETA 00:06:50
Time 16:04:01 | Step 993120519 / 1000000001 | TPS 16942.3 | ETA 00:06:46
Time 16:04:11 | Step 993292420 / 1000000001 | TPS 17190 | ETA 00:06:30
Time 16:04:21 | Step 993464284 / 1000000001 | TPS 17186.3 | ETA 00:06:20
Time 16:04:31 | Step 993636160 / 1000000001 | TPS 17187.5 | ETA 00:06:10
Time 16:04:41 | Step 993808032 / 1000000001 | TPS 17187.1 | ETA 00:06:00
Time 16:04:51 | Step 993979932 / 1000000001 | TPS 17190 | ETA 00:05:50
Time 16:05:01 | Step 994150760 / 1000000001 | TPS 17082.8 | ETA 00:05:42
Time 16:05:11 | Step 994322479 / 1000000001 | TPS 17171.9 | ETA 00:05:30
Time 16:05:21 | Step 994494275 / 1000000001 | TPS 17179.6 | ETA 00:05:20
Time 16:05:31 | Step 994666049 / 1000000001 | TPS 17177.3 | ETA 00:05:10
Time 16:05:41 | Step 994837801 / 1000000001 | TPS 17175.1 | ETA 00:05:00
Time 16:05:51 | Step 995009538 / 1000000001 | TPS 17173.6 | ETA 00:04:50
Time 16:06:01 | Step 995181133 / 1000000001 | TPS 17159.5 | ETA 00:04:40
Time 16:06:11 | Step 995352928 / 1000000001 | TPS 17179.5 | ETA 00:04:30
Time 16:06:21 | Step 995524631 / 1000000001 | TPS 17170.2 | ETA 00:04:20
Time 16:06:31 | Step 995696283 / 1000000001 | TPS 17165.2 | ETA 00:04:10
Time 16:06:41 | Step 995867893 / 1000000001 | TPS 17160.9 | ETA 00:04:00
Time 16:06:51 | Step 996039584 / 1000000001 | TPS 17169 | ETA 00:03:50
Time 16:07:01 | Step 996211525 / 1000000001 | TPS 17194.1 | ETA 00:03:40
Time 16:07:11 | Step 996383396 / 1000000001 | TPS 17187.1 | ETA 00:03:30
Time 16:07:21 | Step 996555144 / 1000000001 | TPS 17174.7 | ETA 00:03:20
Time 16:07:31 | Step 996727036 / 1000000001 | TPS 17189.2 | ETA 00:03:10
Time 16:07:41 | Step 996898769 / 1000000001 | TPS 17173.3 | ETA 00:03:00
Time 16:07:51 | Step 997067762 / 1000000001 | TPS 16899.3 | ETA 00:02:53
Time 16:08:01 | Step 997239426 / 1000000001 | TPS 17166.1 | ETA 00:02:40
Time 16:08:11 | Step 997411178 / 1000000001 | TPS 17175.2 | ETA 00:02:30
Time 16:08:21 | Step 997582915 / 1000000001 | TPS 17173.6 | ETA 00:02:20
Time 16:08:31 | Step 997754738 / 1000000001 | TPS 17182.3 | ETA 00:02:10
Time 16:08:41 | Step 997926373 / 1000000001 | TPS 17163.4 | ETA 00:02:00
Time 16:08:51 | Step 998098049 / 1000000001 | TPS 17167.5 | ETA 00:01:50
Time 16:09:01 | Step 998269711 / 1000000001 | TPS 17166.2 | ETA 00:01:40
Time 16:09:11 | Step 998441495 / 1000000001 | TPS 17178.4 | ETA 00:01:30
Time 16:09:21 | Step 998613132 / 1000000001 | TPS 17163.6 | ETA 00:01:20
Time 16:09:31 | Step 998784902 / 1000000001 | TPS 17176.9 | ETA 00:01:10
Time 16:09:41 | Step 998956553 / 1000000001 | TPS 17165.1 | ETA 00:01:00
Time 16:09:51 | Step 999128153 / 1000000001 | TPS 17160 | ETA 00:00:50
Time 16:10:01 | Step 999299620 / 1000000001 | TPS 17146.7 | ETA 00:00:40
Time 16:10:11 | Step 999471311 / 1000000001 | TPS 17169.1 | ETA 00:00:30
Time 16:10:21 | Step 999643006 / 1000000001 | TPS 17169.5 | ETA 00:00:20
Time 16:10:31 | Step 999814740 / 1000000001 | TPS 17173.4 | ETA 00:00:10
Time 16:10:41 | Step 999986472 / 1000000001 | TPS 17173.2 | ETA 00:00:00
Time 16:10:42 | Step 1000000001 / 1000000001 | TPS 17124 | ETA 00:00:00
Average TPS: 17170
---------
-- Neighborlist stats:
121088890 normal updates / 3333334 forced updates / 0 dangerous updates
n_neigh_min: 4 / n_neigh_max: 45 / n_neigh_avg: 23.3114
shortest rebuild period: 3
-- Cell list stats:
Dimension: 29, 29, 29
n_min    : 0 / n_max: 15 / n_avg: 0.276764
** run complete **
