HOOMD-blue 2.9.6 CUDA (11.1) SINGLE SSE SSE2 
Compiled: 05/10/21
Copyright (c) 2009-2019 The Regents of the University of Michigan.
-----
You are using HOOMD-blue. Please cite the following:
* J A Anderson, J Glaser, and S C Glotzer. "HOOMD-blue: A Python package for
  high-performance molecular dynamics and hard particle Monte Carlo
  simulations", Computational Materials Science 173 (2020) 109363
-----
HOOMD-blue is running on the following GPU(s):
 [0] NVIDIA H100 80GB HBM3 132 SM_9.0 @ 1.98 GHz, 81007 MiB DRAM, MNG
Running on the GPU
Charges (in mV) are:
[-54.0, 44.0]
[95.0, 105.0]
Particle types: ['N', 'P']
Radius of N, P and ionic radii(s):  [95.0, 105.0, 99.75]
radiusN: 95.0
radiusP: 105.0
Electrostatic prefactors are:  {('N', 'N'): 299.83507046393714, ('N', 'P'): -256.52556028581284, ('P', 'P'): 220.02192305215914}
Steric prefactors are:  {('N', 'N'): 368.3741785809289, ('N', 'P'): 387.76229324308304, ('P', 'P'): 407.15040790523716}
Lattice_type:  sc
Lattice site is: P
Putting satellite particles at a distance of 286.000000 from center particles
num_satellite_per_center: 1
snapshot_creation.py:075  |      center_unit_cell = lattice(a=lattice_spacing*2*radius_latticesite)
center_in_uc: 1
satellite_in_uc: 1
Total number of particles in each unit cell: 2
Total lattice spacing: 885.78
Setting mass N: 0.740633 (mass P: 1.000000)
['P', 'N']
Total number of lattice sites: 6750
[[-6200.45996094 -6200.45996094 -6200.45996094]
 [-6200.45996094 -5914.45996094 -6200.45996094]
 [-6200.45996094 -6200.45996094 -5314.68017578]
 ...
 [ 6200.45947266  6486.46044922  5314.68017578]
 [ 6200.45947266  6200.45947266  6200.45947266]
 [ 6200.45947266  6486.46044922  6200.45947266]]
Seed positions:
None
snapshot_creation.py:172  |      system=hoomd.init.read_snapshot(snapshot)
notice(2): Group "all" created containing 6750 particles
Box size:
Box: Lx=13286.7001953125 Ly=13286.7001953125 Lz=13286.7001953125 xy=0.0 xz=0.0 yz=0.0 dimensions=3
max_x,max_y,max_z
6643.35009765625 6643.35009765625 6643.35009765625
snapshot_creation.py:183  |          hoomd.update.box_resize(Lx = 2.*max_x+8*max_radius, Ly = 2.*max_y+8*max_radius, Lz=2.*max_z+8*max_radius, period=None,scale_particles=False)
Updated box size in presence of closed walls:
Box: Lx=14126.7001953125 Ly=14126.7001953125 Lz=14126.7001953125 xy=0.0 xz=0.0 yz=0.0 dimensions=3
Number of particles in system before adding any seed crystal:  6750
Removing lattice particles that overlap with particles of the seed crystal.........
add_interactions.py:006  |  nl = hoomd.md.nlist.cell()
add_interactions.py:007  |  nl.reset_exclusions(exclusions = ['1-2', 'body','constraint'])
notice(2): -- Neighborlist exclusion statistics -- :
notice(2): Particles with 0 exclusions             : 6750
notice(2): Neighbors included by diameter          : no
notice(2): Neighbors excluded when in the same body: no
Turning on closed walls along x/y/z with max_z: 7063.35009765625
add_interactions.py:032  |      wall_force = hoomd.md.wall.slj(wall_group,r_cut=max_radius*(2.0**(1.0/6.0)))
notice(2): Notice: slj set d_max=210.0
add_interactions.py:033  |      wall_force.force_coeff.set('N',epsilon=1,sigma=radiusN,alpha=0,r_cut=radiusN*(2.0**(1.0/6.0)))
add_interactions.py:034  |      wall_force.force_coeff.set('P',epsilon=1,sigma=radiusP,alpha=0,r_cut=radiusP*(2.0**(1.0/6.0)))
add_interactions.py:057  |  table = hoomd.md.pair.table(width=5000,nlist=nl)
*******************************************************************************************************************************************************************************
Setting potential for pair ('N', 'N') with radius_sum 190.0
add_interactions.py:080  |          table.pair_coeff.set(typei,typej, func=screened_potential_shifted_force,rmin=1.00005*radius_sum, rmax=potential_range,coeff=dict(radius_sum=radius_sum, steric_prefactor=steric_prefactors[key],electrostatic_prefactor=electrostatic_prefactors[key],H=sum_brush_lengths,d=debye_length),)
*******************************************************************************************************************************************************************************
Setting potential for pair ('N', 'P') with radius_sum 200.0
add_interactions.py:080  |          table.pair_coeff.set(typei,typej, func=screened_potential_shifted_force,rmin=1.00005*radius_sum, rmax=potential_range,coeff=dict(radius_sum=radius_sum, steric_prefactor=steric_prefactors[key],electrostatic_prefactor=electrostatic_prefactors[key],H=sum_brush_lengths,d=debye_length),)
*******************************************************************************************************************************************************************************
Setting potential for pair ('P', 'P') with radius_sum 210.0
add_interactions.py:080  |          table.pair_coeff.set(typei,typej, func=screened_potential_shifted_force,rmin=1.00005*radius_sum, rmax=potential_range,coeff=dict(radius_sum=radius_sum, steric_prefactor=steric_prefactors[key],electrostatic_prefactor=electrostatic_prefactors[key],H=sum_brush_lengths,d=debye_length),)
i,j,key,potential_min, potential_min_location
(0, 0, ('N', 'N'), 0.0, 291.6719999999749)
(0, 1, ('N', 'P'), -6.000063662211867, 218.61414600000086)
(1, 1, ('P', 'P'), 0.0, 311.6720000000343)
run_dlvo_spheres_metal.py:011  |  all = hoomd.group.all()
run_dlvo_spheres_metal.py:000  |  from add_interactions import *

if temperature.find(':')>0:
    temp_list = np.array( temperature.split(':') ,dtype=float)
    assert len(temp_list)%2==0 and len(temp_list)>=0,"must give an even number of temperature arguments"
    temp_list = [tuple(x) for x in temp_list.reshape((-1,2))]
    temperature = hoomd.variant.linear_interp(points=temp_list)
else:
    temperature = float(temperature)

all = hoomd.group.all()


hoomd.analyze.log(filename=outputlogfile,
mode: langevin
run_dlvo_spheres_metal.py:029  |      hoomd.md.integrate.mode_standard(dt=dt)
run_dlvo_spheres_metal.py:030  |      ld=hoomd.md.integrate.langevin(group=all, kT=temperature, seed=seed)
notice(2): integrate.langevin/bd is using specified gamma values
Using gamma value as: 0.001
run_dlvo_spheres_metal.py:033  |          ld.set_gamma(particle_type,gamma)
run_dlvo_spheres_metal.py:033  |          ld.set_gamma(particle_type,gamma)
run_dlvo_spheres_metal.py:057  |  hoomd.dump.gsd(outputgsdfile, period=dump_frequency, group=all, overwrite=True,dynamic=['attribute','momentum','topology'])
run_dlvo_spheres_metal.py:058  |  hoomd.run(nsteps)
** starting run **
Time 00:00:12 | Step 243985 / 1000000001 | TPS 24398.5 | ETA 11:22:56
Time 00:00:22 | Step 487686 / 1000000001 | TPS 24370 | ETA 11:23:33
Time 00:00:32 | Step 731183 / 1000000001 | TPS 24349.7 | ETA 11:23:58
Time 00:00:42 | Step 975423 / 1000000001 | TPS 24424 | ETA 11:21:43
Time 00:00:52 | Step 1217970 / 1000000001 | TPS 24254.6 | ETA 11:26:19
Time 00:01:02 | Step 1462647 / 1000000001 | TPS 24467.7 | ETA 11:20:10
Time 00:01:12 | Step 1707492 / 1000000001 | TPS 24484.5 | ETA 11:19:32
Time 00:01:22 | Step 1952764 / 1000000001 | TPS 24527.1 | ETA 11:18:11
Time 00:01:32 | Step 2197557 / 1000000001 | TPS 24479.3 | ETA 11:19:21
Time 00:01:42 | Step 2442922 / 1000000001 | TPS 24536.3 | ETA 11:17:36
Time 00:01:52 | Step 2686764 / 1000000001 | TPS 24384.1 | ETA 11:21:40
Time 00:02:02 | Step 2929768 / 1000000001 | TPS 24300.4 | ETA 11:23:51
Time 00:02:12 | Step 3175347 / 1000000001 | TPS 24557.9 | ETA 11:16:30
Time 00:02:22 | Step 3420249 / 1000000001 | TPS 24490.1 | ETA 11:18:13
Time 00:02:32 | Step 3664417 / 1000000001 | TPS 24416.6 | ETA 11:20:05
Time 00:02:42 | Step 3908754 / 1000000001 | TPS 24433.7 | ETA 11:19:27
Time 00:02:52 | Step 4152374 / 1000000001 | TPS 24361.9 | ETA 11:21:17
Time 00:03:02 | Step 4395899 / 1000000001 | TPS 24352.4 | ETA 11:21:23
Time 00:03:12 | Step 4640197 / 1000000001 | TPS 24429.6 | ETA 11:19:04
Time 00:03:22 | Step 4884942 / 1000000001 | TPS 24474.5 | ETA 11:17:39
Time 00:03:32 | Step 5129935 / 1000000001 | TPS 24499.2 | ETA 11:16:48
Time 00:03:42 | Step 5375163 / 1000000001 | TPS 24522.7 | ETA 11:15:59
Time 00:03:52 | Step 5620189 / 1000000001 | TPS 24502.5 | ETA 11:16:22
Time 00:04:02 | Step 5865646 / 1000000001 | TPS 24545.6 | ETA 11:15:01
Time 00:04:12 | Step 6109968 / 1000000001 | TPS 24432.2 | ETA 11:17:59
Time 00:04:22 | Step 6354995 / 1000000001 | TPS 24502.6 | ETA 11:15:52
Time 00:04:32 | Step 6600355 / 1000000001 | TPS 24535.8 | ETA 11:14:47
Time 00:04:42 | Step 6844626 / 1000000001 | TPS 24427.1 | ETA 11:17:37
Time 00:04:52 | Step 7089081 / 1000000001 | TPS 24445.4 | ETA 11:16:57
Time 00:05:02 | Step 7333965 / 1000000001 | TPS 24488.3 | ETA 11:15:36
Time 00:05:12 | Step 7578788 / 1000000001 | TPS 24482.3 | ETA 11:15:36
Time 00:05:22 | Step 7821342 / 1000000001 | TPS 24255.4 | ETA 11:21:45
Time 00:05:32 | Step 8065854 / 1000000001 | TPS 24451.2 | ETA 11:16:07
Time 00:05:42 | Step 8309985 / 1000000001 | TPS 24413 | ETA 11:17:01
Time 00:05:52 | Step 8555394 / 1000000001 | TPS 24540.9 | ETA 11:13:19
Time 00:06:02 | Step 8799691 / 1000000001 | TPS 24429.7 | ETA 11:16:13
Time 00:06:12 | Step 9043801 / 1000000001 | TPS 24410.8 | ETA 11:16:35
Time 00:06:22 | Step 9289626 / 1000000001 | TPS 24582.4 | ETA 11:11:41
Time 00:06:32 | Step 9534973 / 1000000001 | TPS 24534.7 | ETA 11:12:49
Time 00:06:42 | Step 9779913 / 1000000001 | TPS 24494 | ETA 11:13:47
Time 00:06:52 | Step 10024081 / 1000000001 | TPS 24416.8 | ETA 11:15:44
Time 00:07:02 | Step 10268455 / 1000000001 | TPS 24437.3 | ETA 11:15:00
Time 00:07:12 | Step 10512005 / 1000000001 | TPS 24355 | ETA 11:17:07
Time 00:07:22 | Step 10756163 / 1000000001 | TPS 24415.8 | ETA 11:15:16
Time 00:07:32 | Step 11000848 / 1000000001 | TPS 24468.4 | ETA 11:13:39
Time 00:07:42 | Step 11245305 / 1000000001 | TPS 24445.5 | ETA 11:14:07
Time 00:07:52 | Step 11489798 / 1000000001 | TPS 24449.2 | ETA 11:13:51
Time 00:08:02 | Step 11734742 / 1000000001 | TPS 24494.3 | ETA 11:12:26
Time 00:08:12 | Step 11978314 / 1000000001 | TPS 24357.1 | ETA 11:16:03
Time 00:08:22 | Step 12222396 / 1000000001 | TPS 24408.1 | ETA 11:14:29
Time 00:08:32 | Step 12467019 / 1000000001 | TPS 24462.2 | ETA 11:12:49
Time 00:08:42 | Step 12712367 / 1000000001 | TPS 24534.7 | ETA 11:10:40
Time 00:08:52 | Step 12957351 / 1000000001 | TPS 24498.4 | ETA 11:11:30
Time 00:09:02 | Step 13202263 / 1000000001 | TPS 24491.1 | ETA 11:11:32
Time 00:09:12 | Step 13446700 / 1000000001 | TPS 24443.7 | ETA 11:12:40
Time 00:09:22 | Step 13690032 / 1000000001 | TPS 24333.1 | ETA 11:15:33
Time 00:09:32 | Step 13934556 / 1000000001 | TPS 24452.4 | ETA 11:12:05
Time 00:09:42 | Step 14179864 / 1000000001 | TPS 24530.8 | ETA 11:09:47
Time 00:09:52 | Step 14423981 / 1000000001 | TPS 24411.7 | ETA 11:12:53
Time 00:10:02 | Step 14668918 / 1000000001 | TPS 24493.7 | ETA 11:10:27
Time 00:10:12 | Step 14913726 / 1000000001 | TPS 24480.8 | ETA 11:10:39
Time 00:10:22 | Step 15157347 / 1000000001 | TPS 24362 | ETA 11:13:45
Time 00:10:32 | Step 15402532 / 1000000001 | TPS 24518.5 | ETA 11:09:17
Time 00:10:42 | Step 15646781 / 1000000001 | TPS 24424.7 | ETA 11:11:41
Time 00:10:52 | Step 15891787 / 1000000001 | TPS 24500.5 | ETA 11:09:26
Time 00:11:02 | Step 16136115 / 1000000001 | TPS 24432.8 | ETA 11:11:08
Time 00:11:12 | Step 16381135 / 1000000001 | TPS 24501.9 | ETA 11:09:04
Time 00:11:22 | Step 16625524 / 1000000001 | TPS 24438.8 | ETA 11:10:38
Time 00:11:32 | Step 16870360 / 1000000001 | TPS 24483.5 | ETA 11:09:14
Time 00:11:42 | Step 17114132 / 1000000001 | TPS 24377.2 | ETA 11:11:59
Time 00:11:52 | Step 17358997 / 1000000001 | TPS 24486.5 | ETA 11:08:49
Time 00:12:02 | Step 17602868 / 1000000001 | TPS 24387.1 | ETA 11:11:23
Time 00:12:12 | Step 17846262 / 1000000001 | TPS 24339.3 | ETA 11:12:32
Time 00:12:22 | Step 18091475 / 1000000001 | TPS 24521.2 | ETA 11:07:23
Time 00:12:32 | Step 18334331 / 1000000001 | TPS 24285.6 | ETA 11:13:41
Time 00:12:42 | Step 18579204 / 1000000001 | TPS 24487.3 | ETA 11:07:58
Time 00:12:52 | Step 18824806 / 1000000001 | TPS 24560.2 | ETA 11:05:49
Time 00:13:02 | Step 19068362 / 1000000001 | TPS 24355.4 | ETA 11:11:15
Time 00:13:12 | Step 19311881 / 1000000001 | TPS 24351.8 | ETA 11:11:11
Time 00:13:22 | Step 19555214 / 1000000001 | TPS 24333.2 | ETA 11:11:32
Time 00:13:32 | Step 19799587 / 1000000001 | TPS 24437.3 | ETA 11:08:30
Time 00:13:42 | Step 20043830 / 1000000001 | TPS 24424.3 | ETA 11:08:42
Time 00:13:52 | Step 20288717 / 1000000001 | TPS 24488.7 | ETA 11:06:46
Time 00:14:02 | Step 20533492 / 1000000001 | TPS 24477.4 | ETA 11:06:55
Time 00:14:12 | Step 20778111 / 1000000001 | TPS 24461.9 | ETA 11:07:10
Time 00:14:22 | Step 21022581 / 1000000001 | TPS 24446.9 | ETA 11:07:24
Time 00:14:32 | Step 21266959 / 1000000001 | TPS 24437.7 | ETA 11:07:30
Time 00:14:42 | Step 21511627 / 1000000001 | TPS 24466.8 | ETA 11:06:32
Time 00:14:52 | Step 21756516 / 1000000001 | TPS 24488.8 | ETA 11:05:46
Time 00:15:02 | Step 22001227 / 1000000001 | TPS 24471.1 | ETA 11:06:05
Time 00:15:12 | Step 22246647 / 1000000001 | TPS 24542 | ETA 11:04:00
Time 00:15:22 | Step 22491302 / 1000000001 | TPS 24465.5 | ETA 11:05:54
Time 00:15:32 | Step 22736239 / 1000000001 | TPS 24493.6 | ETA 11:04:58
Time 00:15:42 | Step 22981174 / 1000000001 | TPS 24493.4 | ETA 11:04:49
Time 00:15:52 | Step 23225462 / 1000000001 | TPS 24428.7 | ETA 11:06:24
Time 00:16:02 | Step 23470901 / 1000000001 | TPS 24543.8 | ETA 11:03:07
Time 00:16:12 | Step 23715753 / 1000000001 | TPS 24485.2 | ETA 11:04:32
Time 00:16:22 | Step 23960889 / 1000000001 | TPS 24513.5 | ETA 11:03:36
Time 00:16:32 | Step 24206386 / 1000000001 | TPS 24549.6 | ETA 11:02:27
Time 00:16:42 | Step 24449864 / 1000000001 | TPS 24347.8 | ETA 11:07:47
Time 00:16:52 | Step 24694615 / 1000000001 | TPS 24475 | ETA 11:04:09
Time 00:17:02 | Step 24939547 / 1000000001 | TPS 24493.1 | ETA 11:03:29
Time 00:17:12 | Step 25183937 / 1000000001 | TPS 24439 | ETA 11:04:47
Time 00:17:22 | Step 25429105 / 1000000001 | TPS 24516.7 | ETA 11:02:31
Time 00:17:32 | Step 25673875 / 1000000001 | TPS 24477 | ETA 11:03:25
Time 00:17:42 | Step 25917444 / 1000000001 | TPS 24356.8 | ETA 11:06:32
Time 00:17:52 | Step 26162121 / 1000000001 | TPS 24467.6 | ETA 11:03:21
Time 00:18:02 | Step 26406533 / 1000000001 | TPS 24441.2 | ETA 11:03:54
Time 00:18:12 | Step 26651653 / 1000000001 | TPS 24511.9 | ETA 11:01:49
Time 00:18:22 | Step 26897261 / 1000000001 | TPS 24560.6 | ETA 11:00:20
Time 00:18:32 | Step 27141105 / 1000000001 | TPS 24384.3 | ETA 11:04:56
Time 00:18:42 | Step 27385062 / 1000000001 | TPS 24395.7 | ETA 11:04:28
Time 00:18:52 | Step 27630702 / 1000000001 | TPS 24563.9 | ETA 10:59:45
Time 00:19:02 | Step 27874380 / 1000000001 | TPS 24367.7 | ETA 11:04:53
Time 00:19:12 | Step 28118809 / 1000000001 | TPS 24442.8 | ETA 11:02:41
Time 00:19:22 | Step 28364226 / 1000000001 | TPS 24541.7 | ETA 10:59:51
Time 00:19:32 | Step 28610027 / 1000000001 | TPS 24580 | ETA 10:58:39
Time 00:19:42 | Step 28854364 / 1000000001 | TPS 24433.7 | ETA 11:02:26
Time 00:19:52 | Step 29097431 / 1000000001 | TPS 24306.6 | ETA 11:05:43
Time 00:20:02 | Step 29342614 / 1000000001 | TPS 24518.2 | ETA 10:59:49
Time 00:20:12 | Step 29586846 / 1000000001 | TPS 24423.2 | ETA 11:02:13
Time 00:20:22 | Step 29830502 / 1000000001 | TPS 24365.5 | ETA 11:03:37
Time 00:20:32 | Step 30074764 / 1000000001 | TPS 24426.1 | ETA 11:01:48
Time 00:20:42 | Step 30318122 / 1000000001 | TPS 24335.8 | ETA 11:04:05
Time 00:20:52 | Step 30562442 / 1000000001 | TPS 24431.9 | ETA 11:01:19
Time 00:21:02 | Step 30807848 / 1000000001 | TPS 24540.6 | ETA 10:58:13
Time 00:21:12 | Step 31052778 / 1000000001 | TPS 24492.9 | ETA 10:59:20
Time 00:21:22 | Step 31297331 / 1000000001 | TPS 24455.1 | ETA 11:00:11
Time 00:21:32 | Step 31542574 / 1000000001 | TPS 24524.2 | ETA 10:58:09
Time 00:21:42 | Step 31787596 / 1000000001 | TPS 24502.1 | ETA 10:58:35
Time 00:21:52 | Step 32032804 / 1000000001 | TPS 24520.8 | ETA 10:57:55
Time 00:22:02 | Step 32278117 / 1000000001 | TPS 24531.2 | ETA 10:57:28
Time 00:22:12 | Step 32521956 / 1000000001 | TPS 24383.8 | ETA 11:01:17
Time 00:22:22 | Step 32767453 / 1000000001 | TPS 24549.7 | ETA 10:56:38
Time 00:22:32 | Step 33011582 / 1000000001 | TPS 24412.9 | ETA 11:00:09
Time 00:22:42 | Step 33256025 / 1000000001 | TPS 24444.2 | ETA 10:59:08
Time 00:22:52 | Step 33500808 / 1000000001 | TPS 24478.2 | ETA 10:58:04
Time 00:23:02 | Step 33745480 / 1000000001 | TPS 24467.2 | ETA 10:58:11
Time 00:23:12 | Step 33989615 / 1000000001 | TPS 24413.4 | ETA 10:59:28
Time 00:23:22 | Step 34234514 / 1000000001 | TPS 24489.9 | ETA 10:57:15
Time 00:23:32 | Step 34478599 / 1000000001 | TPS 24408.4 | ETA 10:59:16
Time 00:23:42 | Step 34723913 / 1000000001 | TPS 24531.2 | ETA 10:55:48
Time 00:23:52 | Step 34967576 / 1000000001 | TPS 24366.2 | ETA 11:00:05
Time 00:24:02 | Step 35210998 / 1000000001 | TPS 24342.1 | ETA 11:00:34
Time 00:24:12 | Step 35456117 / 1000000001 | TPS 24511.7 | ETA 10:55:50
Time 00:24:22 | Step 35700769 / 1000000001 | TPS 24465.1 | ETA 10:56:55
Time 00:24:32 | Step 35944831 / 1000000001 | TPS 24406.2 | ETA 10:58:20
Time 00:24:42 | Step 36188542 / 1000000001 | TPS 24371.1 | ETA 10:59:07
Time 00:24:52 | Step 36432524 / 1000000001 | TPS 24398.1 | ETA 10:58:13
Time 00:25:02 | Step 36677192 / 1000000001 | TPS 24466.8 | ETA 10:56:12
Time 00:25:12 | Step 36921461 / 1000000001 | TPS 24426.8 | ETA 10:57:07
Time 00:25:22 | Step 37166367 / 1000000001 | TPS 24490.5 | ETA 10:55:14
Time 00:25:32 | Step 37409914 / 1000000001 | TPS 24354.6 | ETA 10:58:43
Time 00:25:42 | Step 37653301 / 1000000001 | TPS 24338.3 | ETA 10:59:00
Time 00:25:52 | Step 37897376 / 1000000001 | TPS 24407.3 | ETA 10:56:58
Time 00:26:02 | Step 38140713 / 1000000001 | TPS 24333.7 | ETA 10:58:47
Time 00:26:12 | Step 38385109 / 1000000001 | TPS 24439.6 | ETA 10:55:46
Time 00:26:22 | Step 38629761 / 1000000001 | TPS 24465.1 | ETA 10:54:55
Time 00:26:32 | Step 38874261 / 1000000001 | TPS 24450 | ETA 10:55:09
Time 00:26:42 | Step 39119101 / 1000000001 | TPS 24483.9 | ETA 10:54:05
Time 00:26:52 | Step 39365278 / 1000000001 | TPS 24617.7 | ETA 10:50:22
Time 00:27:02 | Step 39609564 / 1000000001 | TPS 24428.6 | ETA 10:55:14
Time 00:27:12 | Step 39853530 / 1000000001 | TPS 24396.5 | ETA 10:55:55
Time 00:27:22 | Step 40098070 / 1000000001 | TPS 24454 | ETA 10:54:13
Time 00:27:32 | Step 40340798 / 1000000001 | TPS 24272.8 | ETA 10:58:56
Time 00:27:42 | Step 40585194 / 1000000001 | TPS 24439.5 | ETA 10:54:16
Time 00:27:52 | Step 40828729 / 1000000001 | TPS 24353.5 | ETA 10:56:25
Time 00:28:02 | Step 41073561 / 1000000001 | TPS 24483.2 | ETA 10:52:46
Time 00:28:12 | Step 41317993 / 1000000001 | TPS 24443.2 | ETA 10:53:40
Time 00:28:22 | Step 41562814 / 1000000001 | TPS 24482 | ETA 10:52:28
Time 00:28:32 | Step 41808157 / 1000000001 | TPS 24534.3 | ETA 10:50:55
Time 00:28:42 | Step 42053055 / 1000000001 | TPS 24489.8 | ETA 10:51:56
Time 00:28:52 | Step 42297649 / 1000000001 | TPS 24459.3 | ETA 10:52:34
Time 00:29:02 | Step 42542458 / 1000000001 | TPS 24480.8 | ETA 10:51:50
Time 00:29:12 | Step 42788414 / 1000000001 | TPS 24595.5 | ETA 10:48:38
Time 00:29:22 | Step 43034476 / 1000000001 | TPS 24606.1 | ETA 10:48:11
Time 00:29:32 | Step 43279882 / 1000000001 | TPS 24540.6 | ETA 10:49:45
Time 00:29:42 | Step 43525146 / 1000000001 | TPS 24526.3 | ETA 10:49:57
Time 00:29:52 | Step 43769854 / 1000000001 | TPS 24470.8 | ETA 10:51:16
Time 00:30:02 | Step 44015451 / 1000000001 | TPS 24559.7 | ETA 10:48:44
Time 00:30:12 | Step 44261928 / 1000000001 | TPS 24647.7 | ETA 10:46:16
Time 00:30:22 | Step 44506911 / 1000000001 | TPS 24498.3 | ETA 10:50:02
Time 00:30:32 | Step 44751890 / 1000000001 | TPS 24497.7 | ETA 10:49:53
Time 00:30:42 | Step 44995560 / 1000000001 | TPS 24367 | ETA 10:53:12
Time 00:30:52 | Step 45240509 / 1000000001 | TPS 24494.7 | ETA 10:49:38
Time 00:31:02 | Step 45485007 / 1000000001 | TPS 24449.8 | ETA 10:50:39
Time 00:31:12 | Step 45729949 / 1000000001 | TPS 24494 | ETA 10:49:19
Time 00:31:22 | Step 45975349 / 1000000001 | TPS 24539.9 | ETA 10:47:56
Time 00:31:32 | Step 46220291 / 1000000001 | TPS 24494.2 | ETA 10:48:59
Time 00:31:42 | Step 46464609 / 1000000001 | TPS 24431.7 | ETA 10:50:28
Time 00:31:52 | Step 46710084 / 1000000001 | TPS 24547.4 | ETA 10:47:14
Time 00:32:02 | Step 46954412 / 1000000001 | TPS 24432.7 | ETA 10:50:06
Time 00:32:12 | Step 47199932 / 1000000001 | TPS 24552 | ETA 10:46:47
Time 00:32:22 | Step 47444861 / 1000000001 | TPS 24492.7 | ETA 10:48:11
Time 00:32:32 | Step 47689632 / 1000000001 | TPS 24477.1 | ETA 10:48:26
Time 00:32:42 | Step 47934279 / 1000000001 | TPS 24464.6 | ETA 10:48:35
Time 00:32:52 | Step 48178491 / 1000000001 | TPS 24421.2 | ETA 10:49:35
Time 00:33:02 | Step 48423003 / 1000000001 | TPS 24451.2 | ETA 10:48:37
Time 00:33:12 | Step 48668304 / 1000000001 | TPS 24530.1 | ETA 10:46:22
Time 00:33:22 | Step 48913033 / 1000000001 | TPS 24472.8 | ETA 10:47:42
Time 00:33:32 | Step 49157541 / 1000000001 | TPS 24450.8 | ETA 10:48:08
Time 00:33:42 | Step 49402441 / 1000000001 | TPS 24490 | ETA 10:46:55
Time 00:33:52 | Step 49647033 / 1000000001 | TPS 24459.1 | ETA 10:47:34
Time 00:34:02 | Step 49892473 / 1000000001 | TPS 24544 | ETA 10:45:10
Time 00:34:12 | Step 50137612 / 1000000001 | TPS 24513.8 | ETA 10:45:48
Time 00:34:22 | Step 50381942 / 1000000001 | TPS 24433 | ETA 10:47:46
Time 00:34:32 | Step 50625701 / 1000000001 | TPS 24375.8 | ETA 10:49:07
Time 00:34:42 | Step 50870605 / 1000000001 | TPS 24490.4 | ETA 10:45:55
Time 00:34:52 | Step 51114664 / 1000000001 | TPS 24405.8 | ETA 10:47:59
Time 00:35:02 | Step 51357894 / 1000000001 | TPS 24323 | ETA 10:50:01
Time 00:35:12 | Step 51603570 / 1000000001 | TPS 24567.6 | ETA 10:43:23
Time 00:35:22 | Step 51848998 / 1000000001 | TPS 24542.7 | ETA 10:43:52
Time 00:35:32 | Step 52093084 / 1000000001 | TPS 24408.6 | ETA 10:47:15
Time 00:35:42 | Step 52337180 / 1000000001 | TPS 24409.6 | ETA 10:47:03
Time 00:35:52 | Step 52581506 / 1000000001 | TPS 24432.6 | ETA 10:46:16
Time 00:36:02 | Step 52826125 / 1000000001 | TPS 24461.9 | ETA 10:45:20
Time 00:36:12 | Step 53071708 / 1000000001 | TPS 24558.2 | ETA 10:42:38
Time 00:36:22 | Step 53316815 / 1000000001 | TPS 24510.7 | ETA 10:43:43
Time 00:36:32 | Step 53561957 / 1000000001 | TPS 24514.2 | ETA 10:43:27
Time 00:36:42 | Step 53806210 / 1000000001 | TPS 24425.2 | ETA 10:45:38
Time 00:36:52 | Step 54049024 / 1000000001 | TPS 24281.3 | ETA 10:49:17
Time 00:37:02 | Step 54293749 / 1000000001 | TPS 24472.4 | ETA 10:44:03
Time 00:37:12 | Step 54538273 / 1000000001 | TPS 24452.4 | ETA 10:44:25
Time 00:37:22 | Step 54782422 / 1000000001 | TPS 24414.9 | ETA 10:45:14
Time 00:37:32 | Step 55025481 / 1000000001 | TPS 24305.8 | ETA 10:47:58
Time 00:37:42 | Step 55269537 / 1000000001 | TPS 24405.6 | ETA 10:45:09
Time 00:37:52 | Step 55513912 / 1000000001 | TPS 24437.4 | ETA 10:44:09
Time 00:38:02 | Step 55758001 / 1000000001 | TPS 24408.8 | ETA 10:44:44
Time 00:38:12 | Step 56000001 / 1000000001 | TPS 24178.7 | ETA 10:50:42
Time 00:38:22 | Step 56245490 / 1000000001 | TPS 24548.9 | ETA 10:40:43
Time 00:38:32 | Step 56489449 / 1000000001 | TPS 24395.9 | ETA 10:44:34
Time 00:38:42 | Step 56733677 / 1000000001 | TPS 24422.7 | ETA 10:43:42
Time 00:38:52 | Step 56977862 / 1000000001 | TPS 24418.5 | ETA 10:43:39
Time 00:39:02 | Step 57223099 / 1000000001 | TPS 24523.7 | ETA 10:40:43
Time 00:39:12 | Step 57468246 / 1000000001 | TPS 24514.6 | ETA 10:40:47
Time 00:39:22 | Step 57714001 / 1000000001 | TPS 24575.3 | ETA 10:39:02
Time 00:39:32 | Step 57959189 / 1000000001 | TPS 24518.7 | ETA 10:40:21
Time 00:39:42 | Step 58203678 / 1000000001 | TPS 24448.7 | ETA 10:42:01
Time 00:39:52 | Step 58447086 / 1000000001 | TPS 24340.8 | ETA 10:44:42
Time 00:40:02 | Step 58691914 / 1000000001 | TPS 24482.8 | ETA 10:40:47
Time 00:40:12 | Step 58936459 / 1000000001 | TPS 24454.5 | ETA 10:41:22
Time 00:40:22 | Step 59180490 / 1000000001 | TPS 24403 | ETA 10:42:33
Time 00:40:32 | Step 59424365 / 1000000001 | TPS 24387.4 | ETA 10:42:48
Time 00:40:42 | Step 59668244 / 1000000001 | TPS 24387.8 | ETA 10:42:37
Time 00:40:52 | Step 59911153 / 1000000001 | TPS 24290.8 | ETA 10:45:01
Time 00:41:02 | Step 60155260 / 1000000001 | TPS 24410.6 | ETA 10:41:41
Time 00:41:12 | Step 60400449 / 1000000001 | TPS 24518.9 | ETA 10:38:41
Time 00:41:22 | Step 60644498 / 1000000001 | TPS 24404.9 | ETA 10:41:30
Time 00:41:32 | Step 60888679 / 1000000001 | TPS 24418.1 | ETA 10:40:59
Time 00:41:42 | Step 61133020 / 1000000001 | TPS 24434 | ETA 10:40:24
Time 00:41:52 | Step 61377867 / 1000000001 | TPS 24484.6 | ETA 10:38:55
Time 00:42:02 | Step 61622401 / 1000000001 | TPS 24453 | ETA 10:39:34
Time 00:42:12 | Step 61866792 / 1000000001 | TPS 24439 | ETA 10:39:46
Time 00:42:22 | Step 62111555 / 1000000001 | TPS 24476.2 | ETA 10:38:38
Time 00:42:32 | Step 62355664 / 1000000001 | TPS 24410.8 | ETA 10:40:10
Time 00:42:42 | Step 62599530 / 1000000001 | TPS 24386.5 | ETA 10:40:39
Time 00:42:52 | Step 62843657 / 1000000001 | TPS 24412.7 | ETA 10:39:48
Time 00:43:02 | Step 63088362 / 1000000001 | TPS 24470.4 | ETA 10:38:07
Time 00:43:12 | Step 63332689 / 1000000001 | TPS 24432.6 | ETA 10:38:56
Time 00:43:22 | Step 63577065 / 1000000001 | TPS 24437.5 | ETA 10:38:39
Time 00:43:32 | Step 63821033 / 1000000001 | TPS 24396.8 | ETA 10:39:33
Time 00:43:42 | Step 64066018 / 1000000001 | TPS 24498.5 | ETA 10:36:43
Time 00:43:52 | Step 64310073 / 1000000001 | TPS 24405.3 | ETA 10:38:59
Time 00:44:02 | Step 64554331 / 1000000001 | TPS 24425.7 | ETA 10:38:17
Time 00:44:12 | Step 64799653 / 1000000001 | TPS 24532.2 | ETA 10:35:21
Time 00:44:22 | Step 65045034 / 1000000001 | TPS 24538.1 | ETA 10:35:02
Time 00:44:32 | Step 65289356 / 1000000001 | TPS 24432.2 | ETA 10:37:37
Time 00:44:42 | Step 65533990 / 1000000001 | TPS 24463.3 | ETA 10:36:38
Time 00:44:52 | Step 65778488 / 1000000001 | TPS 24449.7 | ETA 10:36:49
Time 00:45:02 | Step 66022537 / 1000000001 | TPS 24404.9 | ETA 10:37:50
Time 00:45:12 | Step 66266738 / 1000000001 | TPS 24420 | ETA 10:37:16
Time 00:45:22 | Step 66511125 / 1000000001 | TPS 24438.7 | ETA 10:36:37
Time 00:45:32 | Step 66754437 / 1000000001 | TPS 24331.1 | ETA 10:39:16
Time 00:45:42 | Step 66998324 / 1000000001 | TPS 24388.7 | ETA 10:37:35
Time 00:45:52 | Step 67241593 / 1000000001 | TPS 24326.9 | ETA 10:39:02
Time 00:46:02 | Step 67486144 / 1000000001 | TPS 24455.1 | ETA 10:35:31
Time 00:46:12 | Step 67731540 / 1000000001 | TPS 24539.5 | ETA 10:33:10
Time 00:46:22 | Step 67976594 / 1000000001 | TPS 24505.4 | ETA 10:33:53
Time 00:46:32 | Step 68220780 / 1000000001 | TPS 24418.5 | ETA 10:35:58
Time 00:46:42 | Step 68465411 / 1000000001 | TPS 24463.1 | ETA 10:34:39
Time 00:46:52 | Step 68711083 / 1000000001 | TPS 24567.2 | ETA 10:31:47
Time 00:47:02 | Step 68955743 / 1000000001 | TPS 24466 | ETA 10:34:14
Time 00:47:12 | Step 69199766 / 1000000001 | TPS 24402.2 | ETA 10:35:44
Time 00:47:22 | Step 69443661 / 1000000001 | TPS 24389.4 | ETA 10:35:54
Time 00:47:32 | Step 69688013 / 1000000001 | TPS 24435.2 | ETA 10:34:32
Time 00:47:42 | Step 69931305 / 1000000001 | TPS 24329.1 | ETA 10:37:08
Time 00:47:52 | Step 70174837 / 1000000001 | TPS 24353.2 | ETA 10:36:20
Time 00:48:02 | Step 70419387 / 1000000001 | TPS 24455 | ETA 10:33:31
Time 00:48:12 | Step 70663804 / 1000000001 | TPS 24441.6 | ETA 10:33:42
Time 00:48:22 | Step 70908071 / 1000000001 | TPS 24426.7 | ETA 10:33:55
Time 00:48:32 | Step 71151874 / 1000000001 | TPS 24380.3 | ETA 10:34:58
Time 00:48:42 | Step 71396185 / 1000000001 | TPS 24431 | ETA 10:33:29
Time 00:48:52 | Step 71641465 / 1000000001 | TPS 24527.9 | ETA 10:30:49
Time 00:49:02 | Step 71886268 / 1000000001 | TPS 24480.3 | ETA 10:31:52
Time 00:49:12 | Step 72130516 / 1000000001 | TPS 24424.7 | ETA 10:33:08
Time 00:49:22 | Step 72375278 / 1000000001 | TPS 24476 | ETA 10:31:39
Time 00:49:32 | Step 72619141 / 1000000001 | TPS 24386.2 | ETA 10:33:48
Time 00:49:42 | Step 72863717 / 1000000001 | TPS 24457.5 | ETA 10:31:48
Time 00:49:52 | Step 73108002 / 1000000001 | TPS 24428.4 | ETA 10:32:23
Time 00:50:02 | Step 73351822 / 1000000001 | TPS 24381.8 | ETA 10:33:25
Time 00:50:12 | Step 73596145 / 1000000001 | TPS 24432.2 | ETA 10:31:57
Time 00:50:22 | Step 73839954 / 1000000001 | TPS 24380.9 | ETA 10:33:07
Time 00:50:32 | Step 74083480 / 1000000001 | TPS 24352.6 | ETA 10:33:41
Time 00:50:42 | Step 74327119 / 1000000001 | TPS 24363.8 | ETA 10:33:13
Time 00:50:52 | Step 74571531 / 1000000001 | TPS 24441.2 | ETA 10:31:03
Time 00:51:02 | Step 74816446 / 1000000001 | TPS 24491.5 | ETA 10:29:35
Time 00:51:12 | Step 75060266 / 1000000001 | TPS 24382 | ETA 10:32:15
Time 00:51:22 | Step 75305618 / 1000000001 | TPS 24535.1 | ETA 10:28:08
Time 00:51:32 | Step 75550561 / 1000000001 | TPS 24494.2 | ETA 10:29:01
Time 00:51:42 | Step 75794837 / 1000000001 | TPS 24427.5 | ETA 10:30:34
Time 00:51:52 | Step 76038409 / 1000000001 | TPS 24357.2 | ETA 10:32:13
Time 00:52:02 | Step 76282367 / 1000000001 | TPS 24395.8 | ETA 10:31:03
Time 00:52:12 | Step 76527362 / 1000000001 | TPS 24499.4 | ETA 10:28:13
Time 00:52:22 | Step 76772229 / 1000000001 | TPS 24486.7 | ETA 10:28:23
Time 00:52:32 | Step 77016380 / 1000000001 | TPS 24415 | ETA 10:30:03
Time 00:52:42 | Step 77261150 / 1000000001 | TPS 24476.9 | ETA 10:28:18
Time 00:52:52 | Step 77505557 / 1000000001 | TPS 24440.6 | ETA 10:29:04
Time 00:53:02 | Step 77750610 / 1000000001 | TPS 24505.3 | ETA 10:27:14
Time 00:53:12 | Step 77995266 / 1000000001 | TPS 24465.5 | ETA 10:28:05
Time 00:53:22 | Step 78240683 / 1000000001 | TPS 24541.7 | ETA 10:25:58
Time 00:53:32 | Step 78484214 / 1000000001 | TPS 24353.1 | ETA 10:30:39
Time 00:53:42 | Step 78728226 / 1000000001 | TPS 24401.2 | ETA 10:29:15
Time 00:53:52 | Step 78972913 / 1000000001 | TPS 24468.7 | ETA 10:27:21
Time 00:54:02 | Step 79217712 / 1000000001 | TPS 24479.8 | ETA 10:26:53
Time 00:54:12 | Step 79462646 / 1000000001 | TPS 24493.4 | ETA 10:26:23
Time 00:54:22 | Step 79707839 / 1000000001 | TPS 24519.2 | ETA 10:25:33
Time 00:54:32 | Step 79951010 / 1000000001 | TPS 24317 | ETA 10:30:35
Time 00:54:42 | Step 80196142 / 1000000001 | TPS 24513.1 | ETA 10:25:22
Time 00:54:52 | Step 80440139 / 1000000001 | TPS 24399.5 | ETA 10:28:07
Time 00:55:02 | Step 80684218 / 1000000001 | TPS 24407.9 | ETA 10:27:44
Time 00:55:12 | Step 80928807 / 1000000001 | TPS 24458.9 | ETA 10:26:16
Time 00:55:22 | Step 81172677 / 1000000001 | TPS 24387 | ETA 10:27:56
Time 00:55:32 | Step 81417553 / 1000000001 | TPS 24487.6 | ETA 10:25:12
Time 00:55:42 | Step 81662845 / 1000000001 | TPS 24529 | ETA 10:23:58
Time 00:55:52 | Step 81906091 / 1000000001 | TPS 24324.6 | ETA 10:29:03
Time 00:56:02 | Step 82150115 / 1000000001 | TPS 24402.3 | ETA 10:26:53
Time 00:56:12 | Step 82394665 / 1000000001 | TPS 24455 | ETA 10:25:22
Time 00:56:22 | Step 82640041 / 1000000001 | TPS 24537.5 | ETA 10:23:06
Time 00:56:32 | Step 82884055 / 1000000001 | TPS 24401.3 | ETA 10:26:24
Time 00:56:42 | Step 83128998 / 1000000001 | TPS 24494.3 | ETA 10:23:52
Time 00:56:52 | Step 83373686 / 1000000001 | TPS 24468.8 | ETA 10:24:21
Time 00:57:02 | Step 83618294 / 1000000001 | TPS 24460.8 | ETA 10:24:23
Time 00:57:12 | Step 83862988 / 1000000001 | TPS 24469.4 | ETA 10:24:00
Time 00:57:22 | Step 84107362 / 1000000001 | TPS 24437.3 | ETA 10:24:39
Time 00:57:32 | Step 84351727 / 1000000001 | TPS 24436.4 | ETA 10:24:30
Time 00:57:42 | Step 84595572 / 1000000001 | TPS 24384.5 | ETA 10:25:40
Time 00:57:52 | Step 84840324 / 1000000001 | TPS 24475.1 | ETA 10:23:11
Time 00:58:02 | Step 85085490 / 1000000001 | TPS 24516.5 | ETA 10:21:58
Time 00:58:12 | Step 85329491 / 1000000001 | TPS 24400 | ETA 10:24:46
Time 00:58:22 | Step 85574381 / 1000000001 | TPS 24488.9 | ETA 10:22:20
Time 00:58:32 | Step 85819433 / 1000000001 | TPS 24505.1 | ETA 10:21:45
Time 00:58:42 | Step 86064130 / 1000000001 | TPS 24469.6 | ETA 10:22:29
Time 00:58:52 | Step 86309558 / 1000000001 | TPS 24542.8 | ETA 10:20:28
Time 00:59:02 | Step 86554093 / 1000000001 | TPS 24453.4 | ETA 10:22:34
Time 00:59:12 | Step 86798932 / 1000000001 | TPS 24483.9 | ETA 10:21:38
Time 00:59:22 | Step 87043308 / 1000000001 | TPS 24437.5 | ETA 10:22:38
Time 00:59:32 | Step 87289540 / 1000000001 | TPS 24623.1 | ETA 10:17:47
Time 00:59:42 | Step 87533247 / 1000000001 | TPS 24370.7 | ETA 10:24:01
Time 00:59:52 | Step 87776749 / 1000000001 | TPS 24350.2 | ETA 10:24:22
Time 01:00:02 | Step 88019603 / 1000000001 | TPS 24285.4 | ETA 10:25:52
Time 01:00:12 | Step 88264020 / 1000000001 | TPS 24441.7 | ETA 10:21:42
Time 01:00:22 | Step 88509132 / 1000000001 | TPS 24511.2 | ETA 10:19:46
Time 01:00:32 | Step 88753115 / 1000000001 | TPS 24398.3 | ETA 10:22:28
Time 01:00:42 | Step 88998249 / 1000000001 | TPS 24513.4 | ETA 10:19:23
Time 01:00:52 | Step 89242751 / 1000000001 | TPS 24450.2 | ETA 10:20:49
Time 01:01:02 | Step 89487177 / 1000000001 | TPS 24442.6 | ETA 10:20:51
Time 01:01:12 | Step 89731916 / 1000000001 | TPS 24473.8 | ETA 10:19:53
Time 01:01:22 | Step 89976749 / 1000000001 | TPS 24483.3 | ETA 10:19:29
Time 01:01:32 | Step 90222645 / 1000000001 | TPS 24589.5 | ETA 10:16:38
Time 01:01:42 | Step 90468032 / 1000000001 | TPS 24538.7 | ETA 10:17:45
Time 01:01:52 | Step 90712790 / 1000000001 | TPS 24475.8 | ETA 10:19:10
Time 01:02:02 | Step 90957850 / 1000000001 | TPS 24506 | ETA 10:18:14
Time 01:02:12 | Step 91200789 / 1000000001 | TPS 24293.8 | ETA 10:23:28
Time 01:02:22 | Step 91444911 / 1000000001 | TPS 24412.1 | ETA 10:20:17
Time 01:02:32 | Step 91689397 / 1000000001 | TPS 24448.4 | ETA 10:19:12
Time 01:02:42 | Step 91935154 / 1000000001 | TPS 24575.5 | ETA 10:15:49
Time 01:02:52 | Step 92179345 / 1000000001 | TPS 24418.9 | ETA 10:19:36
Time 01:03:02 | Step 92423516 / 1000000001 | TPS 24417.1 | ETA 10:19:29
Time 01:03:12 | Step 92667495 / 1000000001 | TPS 24397.9 | ETA 10:19:48
Time 01:03:22 | Step 92912312 / 1000000001 | TPS 24481.7 | ETA 10:17:31
Time 01:03:32 | Step 93157157 / 1000000001 | TPS 24484.3 | ETA 10:17:17
Time 01:03:42 | Step 93401672 / 1000000001 | TPS 24451.5 | ETA 10:17:57
Time 01:03:52 | Step 93645971 / 1000000001 | TPS 24429.8 | ETA 10:18:20
Time 01:04:02 | Step 93890417 / 1000000001 | TPS 24444.5 | ETA 10:17:47
Time 01:04:12 | Step 94135511 / 1000000001 | TPS 24509.4 | ETA 10:15:59
Time 01:04:22 | Step 94380801 / 1000000001 | TPS 24528.9 | ETA 10:15:20
Time 01:04:32 | Step 94625018 / 1000000001 | TPS 24421.7 | ETA 10:17:52
Time 01:04:42 | Step 94869501 / 1000000001 | TPS 24448.1 | ETA 10:17:02
Time 01:04:52 | Step 95114497 / 1000000001 | TPS 24499.5 | ETA 10:15:34
Time 01:05:02 | Step 95359806 / 1000000001 | TPS 24530.8 | ETA 10:14:37
Time 01:05:12 | Step 95605125 / 1000000001 | TPS 24531.9 | ETA 10:14:26
Time 01:05:22 | Step 95849505 / 1000000001 | TPS 24437.9 | ETA 10:16:37
Time 01:05:32 | Step 96093086 / 1000000001 | TPS 24358 | ETA 10:18:29
Time 01:05:42 | Step 96336910 / 1000000001 | TPS 24382.4 | ETA 10:17:42
Time 01:05:52 | Step 96581637 / 1000000001 | TPS 24472.7 | ETA 10:15:15
Time 01:06:02 | Step 96826352 / 1000000001 | TPS 24471.5 | ETA 10:15:07
Time 01:06:12 | Step 97071167 / 1000000001 | TPS 24481.5 | ETA 10:14:42
Time 01:06:22 | Step 97316368 / 1000000001 | TPS 24519.9 | ETA 10:13:34
Time 01:06:32 | Step 97561128 / 1000000001 | TPS 24476 | ETA 10:14:30
Time 01:06:42 | Step 97805829 / 1000000001 | TPS 24470 | ETA 10:14:29
Time 01:06:52 | Step 98049559 / 1000000001 | TPS 24372.9 | ETA 10:16:46
Time 01:07:02 | Step 98293069 / 1000000001 | TPS 24350.9 | ETA 10:17:09
Time 01:07:12 | Step 98537259 / 1000000001 | TPS 24419 | ETA 10:15:16
Time 01:07:22 | Step 98782645 / 1000000001 | TPS 24538.6 | ETA 10:12:06
Time 01:07:32 | Step 99027616 / 1000000001 | TPS 24497.1 | ETA 10:12:58
Time 01:07:42 | Step 99271547 / 1000000001 | TPS 24393 | ETA 10:15:25
Time 01:07:52 | Step 99515415 / 1000000001 | TPS 24386.8 | ETA 10:15:25
Time 01:08:02 | Step 99760575 / 1000000001 | TPS 24516 | ETA 10:12:00
Time 01:08:12 | Step 100005073 / 1000000001 | TPS 24449.7 | ETA 10:13:30
Time 01:08:22 | Step 100249297 / 1000000001 | TPS 24422.2 | ETA 10:14:01
Time 01:08:32 | Step 100494501 / 1000000001 | TPS 24520.4 | ETA 10:11:24
Time 01:08:42 | Step 100739044 / 1000000001 | TPS 24454.2 | ETA 10:12:53
Time 01:08:52 | Step 100984036 / 1000000001 | TPS 24499.2 | ETA 10:11:35
Time 01:09:02 | Step 101229427 / 1000000001 | TPS 24539 | ETA 10:10:26
Time 01:09:12 | Step 101473349 / 1000000001 | TPS 24392.2 | ETA 10:13:56
Time 01:09:22 | Step 101717075 / 1000000001 | TPS 24372.6 | ETA 10:14:16
Time 01:09:32 | Step 101961427 / 1000000001 | TPS 24435.1 | ETA 10:12:31
Time 01:09:42 | Step 102206337 / 1000000001 | TPS 24491 | ETA 10:10:58
Time 01:09:52 | Step 102450664 / 1000000001 | TPS 24432.6 | ETA 10:12:15
Time 01:10:02 | Step 102694951 / 1000000001 | TPS 24428.7 | ETA 10:12:11
Time 01:10:12 | Step 102938088 / 1000000001 | TPS 24313.7 | ETA 10:14:55
Time 01:10:22 | Step 103182858 / 1000000001 | TPS 24476.8 | ETA 10:10:39
Time 01:10:32 | Step 103427386 / 1000000001 | TPS 24452.7 | ETA 10:11:05
Time 01:10:42 | Step 103673075 / 1000000001 | TPS 24568.9 | ETA 10:08:02
Time 01:10:52 | Step 103918325 / 1000000001 | TPS 24525 | ETA 10:08:57
Time 01:11:02 | Step 104162566 / 1000000001 | TPS 24424.1 | ETA 10:11:18
Time 01:11:12 | Step 104407563 / 1000000001 | TPS 24499.7 | ETA 10:09:15
Time 01:11:22 | Step 104653216 / 1000000001 | TPS 24565.2 | ETA 10:07:27
Time 01:11:32 | Step 104898255 / 1000000001 | TPS 24503.8 | ETA 10:08:49
Time 01:11:42 | Step 105141863 / 1000000001 | TPS 24360.8 | ETA 10:12:13
Time 01:11:52 | Step 105386407 / 1000000001 | TPS 24454.3 | ETA 10:09:43
Time 01:12:02 | Step 105632541 / 1000000001 | TPS 24613.4 | ETA 10:05:36
Time 01:12:12 | Step 105878439 / 1000000001 | TPS 24589.7 | ETA 10:06:01
Time 01:12:22 | Step 106123445 / 1000000001 | TPS 24500.6 | ETA 10:08:03
Time 01:12:32 | Step 106368355 / 1000000001 | TPS 24491 | ETA 10:08:08
Time 01:12:42 | Step 106613935 / 1000000001 | TPS 24557.9 | ETA 10:06:18
Time 01:12:52 | Step 106857746 / 1000000001 | TPS 24381.1 | ETA 10:10:32
Time 01:13:02 | Step 107102550 / 1000000001 | TPS 24480.2 | ETA 10:07:54
Time 01:13:12 | Step 107347340 / 1000000001 | TPS 24478.9 | ETA 10:07:46
Time 01:13:22 | Step 107591793 / 1000000001 | TPS 24445.3 | ETA 10:08:26
Time 01:13:32 | Step 107836277 / 1000000001 | TPS 24448.4 | ETA 10:08:11
Time 01:13:42 | Step 108081048 / 1000000001 | TPS 24477.1 | ETA 10:07:18
Time 01:13:52 | Step 108326063 / 1000000001 | TPS 24501.4 | ETA 10:06:32
Time 01:14:02 | Step 108570700 / 1000000001 | TPS 24463.6 | ETA 10:07:18
Time 01:14:12 | Step 108815887 / 1000000001 | TPS 24518.6 | ETA 10:05:47
Time 01:14:22 | Step 109061577 / 1000000001 | TPS 24569 | ETA 10:04:22
Time 01:14:32 | Step 109306517 / 1000000001 | TPS 24493.8 | ETA 10:06:03
Time 01:14:42 | Step 109550903 / 1000000001 | TPS 24438.6 | ETA 10:07:16
Time 01:14:52 | Step 109794887 / 1000000001 | TPS 24398.3 | ETA 10:08:06
Time 01:15:02 | Step 110039669 / 1000000001 | TPS 24478.2 | ETA 10:05:57
Time 01:15:12 | Step 110285162 / 1000000001 | TPS 24549.3 | ETA 10:04:01
Time 01:15:22 | Step 110528613 / 1000000001 | TPS 24345 | ETA 10:08:56
Time 01:15:32 | Step 110773229 / 1000000001 | TPS 24461.6 | ETA 10:05:51
Time 01:15:42 | Step 111017149 / 1000000001 | TPS 24391.8 | ETA 10:07:25
Time 01:15:52 | Step 111260916 / 1000000001 | TPS 24376.6 | ETA 10:07:38
Time 01:16:02 | Step 111504865 / 1000000001 | TPS 24394.8 | ETA 10:07:01
Time 01:16:12 | Step 111749829 / 1000000001 | TPS 24496.3 | ETA 10:04:20
Time 01:16:22 | Step 111995125 / 1000000001 | TPS 24529.4 | ETA 10:03:21
Time 01:16:32 | Step 112238227 / 1000000001 | TPS 24310.2 | ETA 10:08:38
Time 01:16:42 | Step 112483126 / 1000000001 | TPS 24489.9 | ETA 10:04:00
Time 01:16:52 | Step 112727765 / 1000000001 | TPS 24463.8 | ETA 10:04:28
Time 01:17:02 | Step 112973048 / 1000000001 | TPS 24528.3 | ETA 10:02:43
Time 01:17:12 | Step 113217208 / 1000000001 | TPS 24415.9 | ETA 10:05:19
Time 01:17:22 | Step 113461629 / 1000000001 | TPS 24442 | ETA 10:04:31
Time 01:17:32 | Step 113705145 / 1000000001 | TPS 24351.6 | ETA 10:06:35
Time 01:17:42 | Step 113949181 / 1000000001 | TPS 24403.6 | ETA 10:05:08
Time 01:17:52 | Step 114194065 / 1000000001 | TPS 24488.4 | ETA 10:02:52
Time 01:18:02 | Step 114438091 / 1000000001 | TPS 24402.5 | ETA 10:04:49
Time 01:18:12 | Step 114683325 / 1000000001 | TPS 24523.4 | ETA 10:01:40
Time 01:18:22 | Step 114929058 / 1000000001 | TPS 24573.2 | ETA 10:00:17
Time 01:18:32 | Step 115173236 / 1000000001 | TPS 24417.8 | ETA 10:03:57
Time 01:18:42 | Step 115417411 / 1000000001 | TPS 24417.4 | ETA 10:03:47
Time 01:18:52 | Step 115660540 / 1000000001 | TPS 24312.8 | ETA 10:06:13
Time 01:19:02 | Step 115904160 / 1000000001 | TPS 24361.9 | ETA 10:04:50
Time 01:19:12 | Step 116148188 / 1000000001 | TPS 24402.7 | ETA 10:03:39
Time 01:19:22 | Step 116391097 / 1000000001 | TPS 24290.8 | ETA 10:06:16
Time 01:19:32 | Step 116634962 / 1000000001 | TPS 24386.5 | ETA 10:03:43
Time 01:19:42 | Step 116878725 / 1000000001 | TPS 24376.2 | ETA 10:03:48
Time 01:19:52 | Step 117122701 / 1000000001 | TPS 24397.3 | ETA 10:03:07
Time 01:20:02 | Step 117365570 / 1000000001 | TPS 24286.8 | ETA 10:05:42
Time 01:20:12 | Step 117609199 / 1000000001 | TPS 24362.9 | ETA 10:03:38
Time 01:20:22 | Step 117854386 / 1000000001 | TPS 24518.7 | ETA 09:59:38
Time 01:20:32 | Step 118098531 / 1000000001 | TPS 24414.4 | ETA 10:02:02
Time 01:20:42 | Step 118340433 / 1000000001 | TPS 24190.1 | ETA 10:07:27
Time 01:20:52 | Step 118585480 / 1000000001 | TPS 24504.7 | ETA 09:59:29
Time 01:21:02 | Step 118830550 / 1000000001 | TPS 24506.8 | ETA 09:59:16
Time 01:21:12 | Step 119075230 / 1000000001 | TPS 24468 | ETA 10:00:03
Time 01:21:22 | Step 119319097 / 1000000001 | TPS 24386.5 | ETA 10:01:53
Time 01:21:32 | Step 119562995 / 1000000001 | TPS 24389.8 | ETA 10:01:38
Time 01:21:42 | Step 119806730 / 1000000001 | TPS 24373.4 | ETA 10:01:52
Time 01:21:52 | Step 120050561 / 1000000001 | TPS 24383.1 | ETA 10:01:28
Time 01:22:02 | Step 120295644 / 1000000001 | TPS 24508.3 | ETA 09:58:14
Time 01:22:12 | Step 120539864 / 1000000001 | TPS 24421.9 | ETA 10:00:11
Time 01:22:22 | Step 120781907 / 1000000001 | TPS 24204.3 | ETA 10:05:24
Time 01:22:32 | Step 121026745 / 1000000001 | TPS 24483.8 | ETA 09:58:20
Time 01:22:42 | Step 121271655 / 1000000001 | TPS 24490.9 | ETA 09:57:59
Time 01:22:52 | Step 121517186 / 1000000001 | TPS 24553 | ETA 09:56:18
Time 01:23:02 | Step 121760999 / 1000000001 | TPS 24381.2 | ETA 10:00:21
Time 01:23:12 | Step 122006441 / 1000000001 | TPS 24544.2 | ETA 09:56:11
Time 01:23:22 | Step 122250135 / 1000000001 | TPS 24369.4 | ETA 10:00:18
Time 01:23:32 | Step 122494205 / 1000000001 | TPS 24407 | ETA 09:59:13
Time 01:23:42 | Step 122738073 / 1000000001 | TPS 24386.7 | ETA 09:59:32
Time 01:23:52 | Step 122981089 / 1000000001 | TPS 24301.5 | ETA 10:01:29
Time 01:24:02 | Step 123225352 / 1000000001 | TPS 24426.3 | ETA 09:58:14
Time 01:24:12 | Step 123468774 / 1000000001 | TPS 24342.1 | ETA 10:00:08
Time 01:24:22 | Step 123711598 / 1000000001 | TPS 24282.3 | ETA 10:01:27
Time 01:24:32 | Step 123956326 / 1000000001 | TPS 24472.8 | ETA 09:56:36
Time 01:24:42 | Step 124200281 / 1000000001 | TPS 24395.5 | ETA 09:58:20
Time 01:24:52 | Step 124444330 / 1000000001 | TPS 24404.9 | ETA 09:57:56
Time 01:25:02 | Step 124688709 / 1000000001 | TPS 24437.8 | ETA 09:56:57
Time 01:25:12 | Step 124931229 / 1000000001 | TPS 24252 | ETA 10:01:22
Time 01:25:22 | Step 125175595 / 1000000001 | TPS 24436.6 | ETA 09:56:39
Time 01:25:32 | Step 125421129 / 1000000001 | TPS 24553.2 | ETA 09:53:39
Time 01:25:42 | Step 125665564 / 1000000001 | TPS 24443.5 | ETA 09:56:09
Time 01:25:52 | Step 125909248 / 1000000001 | TPS 24368.3 | ETA 09:57:49
Time 01:26:02 | Step 126153753 / 1000000001 | TPS 24450.5 | ETA 09:55:39
Time 01:26:12 | Step 126399059 / 1000000001 | TPS 24530.6 | ETA 09:53:32
Time 01:26:22 | Step 126642552 / 1000000001 | TPS 24349.3 | ETA 09:57:47
Time 01:26:32 | Step 126886968 / 1000000001 | TPS 24441.6 | ETA 09:55:22
Time 01:26:42 | Step 127132969 / 1000000001 | TPS 24600 | ETA 09:51:22
Time 01:26:52 | Step 127378168 / 1000000001 | TPS 24519.9 | ETA 09:53:08
Time 01:27:02 | Step 127623139 / 1000000001 | TPS 24497.1 | ETA 09:53:31
Time 01:27:12 | Step 127868315 / 1000000001 | TPS 24517.6 | ETA 09:52:51
Time 01:27:22 | Step 128113148 / 1000000001 | TPS 24483.3 | ETA 09:53:31
Time 01:27:32 | Step 128358028 / 1000000001 | TPS 24487.9 | ETA 09:53:14
Time 01:27:42 | Step 128602539 / 1000000001 | TPS 24451 | ETA 09:53:58
Time 01:27:52 | Step 128846458 / 1000000001 | TPS 24391.9 | ETA 09:55:14
Time 01:28:02 | Step 129090758 / 1000000001 | TPS 24429.9 | ETA 09:54:09
Time 01:28:12 | Step 129335448 / 1000000001 | TPS 24468.9 | ETA 09:53:02
Time 01:28:22 | Step 129580441 / 1000000001 | TPS 24499.3 | ETA 09:52:08
Time 01:28:32 | Step 129825386 / 1000000001 | TPS 24494.5 | ETA 09:52:05
Time 01:28:42 | Step 130068995 / 1000000001 | TPS 24360.8 | ETA 09:55:10
Time 01:28:52 | Step 130314476 / 1000000001 | TPS 24548 | ETA 09:50:27
Time 01:29:02 | Step 130559987 / 1000000001 | TPS 24551.1 | ETA 09:50:13
Time 01:29:12 | Step 130804055 / 1000000001 | TPS 24406.8 | ETA 09:53:32
Time 01:29:22 | Step 131048472 / 1000000001 | TPS 24441.7 | ETA 09:52:32
Time 01:29:32 | Step 131292780 / 1000000001 | TPS 24430.8 | ETA 09:52:37
Time 01:29:42 | Step 131537809 / 1000000001 | TPS 24502.8 | ETA 09:50:43
Time 01:29:52 | Step 131783089 / 1000000001 | TPS 24527.9 | ETA 09:49:57
Time 01:30:02 | Step 132028355 / 1000000001 | TPS 24526.5 | ETA 09:49:49
Time 01:30:12 | Step 132272585 / 1000000001 | TPS 24423 | ETA 09:52:09
Time 01:30:22 | Step 132517713 / 1000000001 | TPS 24512.8 | ETA 09:49:48
Time 01:30:32 | Step 132760191 / 1000000001 | TPS 24247.7 | ETA 09:56:05
Time 01:30:42 | Step 133004026 / 1000000001 | TPS 24383.5 | ETA 09:52:36
Time 01:30:52 | Step 133248296 / 1000000001 | TPS 24426.9 | ETA 09:51:23
Time 01:31:02 | Step 133493053 / 1000000001 | TPS 24475.6 | ETA 09:50:02
Time 01:31:12 | Step 133737776 / 1000000001 | TPS 24472.2 | ETA 09:49:57
Time 01:31:22 | Step 133983400 / 1000000001 | TPS 24562.4 | ETA 09:47:37
Time 01:31:32 | Step 134226728 / 1000000001 | TPS 24332.8 | ETA 09:53:00
Time 01:31:42 | Step 134470514 / 1000000001 | TPS 24378.5 | ETA 09:51:43
Time 01:31:52 | Step 134715355 / 1000000001 | TPS 24484 | ETA 09:49:00
Time 01:32:02 | Step 134958777 / 1000000001 | TPS 24342.2 | ETA 09:52:16
Time 01:32:12 | Step 135201763 / 1000000001 | TPS 24298.6 | ETA 09:53:10
Time 01:32:22 | Step 135445581 / 1000000001 | TPS 24381.7 | ETA 09:50:59
Time 01:32:32 | Step 135690630 / 1000000001 | TPS 24504.9 | ETA 09:47:50
Time 01:32:42 | Step 135935493 / 1000000001 | TPS 24486.3 | ETA 09:48:07
Time 01:32:52 | Step 136178253 / 1000000001 | TPS 24276 | ETA 09:53:03
Time 01:33:02 | Step 136423510 / 1000000001 | TPS 24525.6 | ETA 09:46:51
Time 01:33:12 | Step 136667333 / 1000000001 | TPS 24382.2 | ETA 09:50:08
Time 01:33:22 | Step 136911624 / 1000000001 | TPS 24429.1 | ETA 09:48:50
Time 01:33:32 | Step 137157165 / 1000000001 | TPS 24554 | ETA 09:45:40
Time 01:33:42 | Step 137402328 / 1000000001 | TPS 24516.3 | ETA 09:46:24
Time 01:33:52 | Step 137646797 / 1000000001 | TPS 24446.9 | ETA 09:47:54
Time 01:34:02 | Step 137890225 / 1000000001 | TPS 24342.6 | ETA 09:50:15
Time 01:34:12 | Step 138135479 / 1000000001 | TPS 24525.4 | ETA 09:45:41
Time 01:34:22 | Step 138379185 / 1000000001 | TPS 24370.4 | ETA 09:49:15
Time 01:34:32 | Step 138623843 / 1000000001 | TPS 24465.8 | ETA 09:46:47
Time 01:34:42 | Step 138869078 / 1000000001 | TPS 24523.4 | ETA 09:45:14
Time 01:34:52 | Step 139114309 / 1000000001 | TPS 24523 | ETA 09:45:05
Time 01:35:02 | Step 139358909 / 1000000001 | TPS 24459.9 | ETA 09:46:25
Time 01:35:12 | Step 139603248 / 1000000001 | TPS 24433.8 | ETA 09:46:53
Time 01:35:22 | Step 139848291 / 1000000001 | TPS 24504.3 | ETA 09:45:02
Time 01:35:32 | Step 140093733 / 1000000001 | TPS 24544.1 | ETA 09:43:55
Time 01:35:42 | Step 140338725 / 1000000001 | TPS 24499.1 | ETA 09:44:49
Time 01:35:52 | Step 140583033 / 1000000001 | TPS 24430.7 | ETA 09:46:17
Time 01:36:02 | Step 140826347 / 1000000001 | TPS 24331.4 | ETA 09:48:31
Time 01:36:12 | Step 141071217 / 1000000001 | TPS 24487 | ETA 09:44:36
Time 01:36:22 | Step 141316265 / 1000000001 | TPS 24504.7 | ETA 09:44:01
Time 01:36:32 | Step 141559849 / 1000000001 | TPS 24358.2 | ETA 09:47:22
Time 01:36:42 | Step 141804878 / 1000000001 | TPS 24502.8 | ETA 09:43:44
Time 01:36:52 | Step 142049250 / 1000000001 | TPS 24437.2 | ETA 09:45:08
Time 01:37:02 | Step 142293052 / 1000000001 | TPS 24380.1 | ETA 09:46:20
Time 01:37:12 | Step 142538269 / 1000000001 | TPS 24521.6 | ETA 09:42:47
Time 01:37:22 | Step 142782990 / 1000000001 | TPS 24472.1 | ETA 09:43:48
Time 01:37:32 | Step 143026729 / 1000000001 | TPS 24373.8 | ETA 09:45:59
Time 01:37:42 | Step 143271473 / 1000000001 | TPS 24474.3 | ETA 09:43:25
Time 01:37:52 | Step 143515567 / 1000000001 | TPS 24409.3 | ETA 09:44:48
Time 01:38:02 | Step 143760197 / 1000000001 | TPS 24462.9 | ETA 09:43:21
Time 01:38:12 | Step 144005374 / 1000000001 | TPS 24517.6 | ETA 09:41:53
Time 01:38:22 | Step 144249807 / 1000000001 | TPS 24443.2 | ETA 09:43:29
Time 01:38:32 | Step 144495811 / 1000000001 | TPS 24600.4 | ETA 09:39:36
Time 01:38:42 | Step 144741048 / 1000000001 | TPS 24523.7 | ETA 09:41:14
Time 01:38:52 | Step 144984001 / 1000000001 | TPS 24295 | ETA 09:46:33
Time 01:39:02 | Step 145228557 / 1000000001 | TPS 24455.6 | ETA 09:42:32
Time 01:39:12 | Step 145472730 / 1000000001 | TPS 24417.2 | ETA 09:43:16
Time 01:39:22 | Step 145715534 / 1000000001 | TPS 24280.3 | ETA 09:46:24
Time 01:39:32 | Step 145959749 / 1000000001 | TPS 24421.4 | ETA 09:42:50
Time 01:39:42 | Step 146204476 / 1000000001 | TPS 24472.7 | ETA 09:41:27
Time 01:39:52 | Step 146448446 / 1000000001 | TPS 24397 | ETA 09:43:05
Time 01:40:02 | Step 146691993 / 1000000001 | TPS 24354.7 | ETA 09:43:56
Time 01:40:12 | Step 146935977 / 1000000001 | TPS 24398.2 | ETA 09:42:44
Time 01:40:22 | Step 147180307 / 1000000001 | TPS 24432.9 | ETA 09:41:44
Time 01:40:32 | Step 147423860 / 1000000001 | TPS 24355.2 | ETA 09:43:25
Time 01:40:42 | Step 147668145 / 1000000001 | TPS 24428.5 | ETA 09:41:30
Time 01:40:52 | Step 147911364 / 1000000001 | TPS 24321.9 | ETA 09:43:53
Time 01:41:02 | Step 148156528 / 1000000001 | TPS 24516.2 | ETA 09:39:06
Time 01:41:12 | Step 148401786 / 1000000001 | TPS 24525.7 | ETA 09:38:42
Time 01:41:22 | Step 148645653 / 1000000001 | TPS 24386.6 | ETA 09:41:50
Time 01:41:32 | Step 148890683 / 1000000001 | TPS 24502.9 | ETA 09:38:54
Time 01:41:42 | Step 149136098 / 1000000001 | TPS 24541.4 | ETA 09:37:50
Time 01:41:52 | Step 149380724 / 1000000001 | TPS 24462.6 | ETA 09:39:32
Time 01:42:02 | Step 149625365 / 1000000001 | TPS 24464.1 | ETA 09:39:20
Time 01:42:12 | Step 149869720 / 1000000001 | TPS 24435.4 | ETA 09:39:50
Time 01:42:22 | Step 150113139 / 1000000001 | TPS 24341.9 | ETA 09:41:54
Time 01:42:32 | Step 150357880 / 1000000001 | TPS 24474.1 | ETA 09:38:36
Time 01:42:42 | Step 150602333 / 1000000001 | TPS 24445.1 | ETA 09:39:07
Time 01:42:52 | Step 150847578 / 1000000001 | TPS 24524.4 | ETA 09:37:04
Time 01:43:02 | Step 151092000 / 1000000001 | TPS 24442.1 | ETA 09:38:51
Time 01:43:12 | Step 151336209 / 1000000001 | TPS 24420.8 | ETA 09:39:11
Time 01:43:22 | Step 151581670 / 1000000001 | TPS 24546.1 | ETA 09:36:04
Time 01:43:32 | Step 151827089 / 1000000001 | TPS 24541.9 | ETA 09:36:00
Time 01:43:42 | Step 152070051 / 1000000001 | TPS 24296.2 | ETA 09:41:39
Time 01:43:52 | Step 152314801 / 1000000001 | TPS 24475 | ETA 09:37:14
Time 01:44:02 | Step 152560624 / 1000000001 | TPS 24582.2 | ETA 09:34:33
Time 01:44:12 | Step 152805577 / 1000000001 | TPS 24495.3 | ETA 09:36:26
Time 01:44:22 | Step 153050373 / 1000000001 | TPS 24479.5 | ETA 09:36:38
Time 01:44:32 | Step 153293619 / 1000000001 | TPS 24324.5 | ETA 09:40:08
Time 01:44:42 | Step 153538225 / 1000000001 | TPS 24460.5 | ETA 09:36:45
Time 01:44:52 | Step 153782991 / 1000000001 | TPS 24476.6 | ETA 09:36:12
Time 01:45:02 | Step 154027646 / 1000000001 | TPS 24465.4 | ETA 09:36:18
Time 01:45:12 | Step 154272585 / 1000000001 | TPS 24493.9 | ETA 09:35:28
Time 01:45:22 | Step 154516306 / 1000000001 | TPS 24372 | ETA 09:38:10
Time 01:45:32 | Step 154759606 / 1000000001 | TPS 24329.9 | ETA 09:39:00
Time 01:45:42 | Step 155004848 / 1000000001 | TPS 24524.1 | ETA 09:34:15
Time 01:45:52 | Step 155249654 / 1000000001 | TPS 24480.6 | ETA 09:35:06
Time 01:46:02 | Step 155493446 / 1000000001 | TPS 24379.2 | ETA 09:37:20
Time 01:46:12 | Step 155738413 / 1000000001 | TPS 24496.7 | ETA 09:34:24
Time 01:46:22 | Step 155980827 / 1000000001 | TPS 24241.3 | ETA 09:40:17
Time 01:46:32 | Step 156225102 / 1000000001 | TPS 24427.5 | ETA 09:35:42
Time 01:46:42 | Step 156470061 / 1000000001 | TPS 24495.9 | ETA 09:33:55
Time 01:46:52 | Step 156713878 / 1000000001 | TPS 24381.6 | ETA 09:36:26
Time 01:47:02 | Step 156959385 / 1000000001 | TPS 24550.7 | ETA 09:32:18
Time 01:47:12 | Step 157204852 / 1000000001 | TPS 24546.6 | ETA 09:32:14
Time 01:47:22 | Step 157450068 / 1000000001 | TPS 24521.6 | ETA 09:32:39
Time 01:47:32 | Step 157695124 / 1000000001 | TPS 24505.6 | ETA 09:32:51
Time 01:47:42 | Step 157939197 / 1000000001 | TPS 24407.1 | ETA 09:35:00
Time 01:47:52 | Step 158184590 / 1000000001 | TPS 24539.3 | ETA 09:31:44
Time 01:48:02 | Step 158429167 / 1000000001 | TPS 24457.6 | ETA 09:33:29
Time 01:48:12 | Step 158673297 / 1000000001 | TPS 24412.8 | ETA 09:34:22
Time 01:48:22 | Step 158917677 / 1000000001 | TPS 24438 | ETA 09:33:37
Time 01:48:32 | Step 159163337 / 1000000001 | TPS 24565.8 | ETA 09:30:27
Time 01:48:42 | Step 159408983 / 1000000001 | TPS 24564.5 | ETA 09:30:19
Time 01:48:52 | Step 159653284 / 1000000001 | TPS 24430.1 | ETA 09:33:18
Time 01:49:02 | Step 159897706 / 1000000001 | TPS 24442.2 | ETA 09:32:51
Time 01:49:12 | Step 160142173 / 1000000001 | TPS 24446.6 | ETA 09:32:34
Time 01:49:22 | Step 160386568 / 1000000001 | TPS 24439.5 | ETA 09:32:34
Time 01:49:32 | Step 160631851 / 1000000001 | TPS 24528.2 | ETA 09:30:20
Time 01:49:42 | Step 160876913 / 1000000001 | TPS 24506 | ETA 09:30:41
Time 01:49:52 | Step 161121879 / 1000000001 | TPS 24496.6 | ETA 09:30:44
Time 01:50:02 | Step 161364410 / 1000000001 | TPS 24253.1 | ETA 09:36:18
Time 01:50:12 | Step 161608815 / 1000000001 | TPS 24440.4 | ETA 09:31:43
Time 01:50:22 | Step 161852235 / 1000000001 | TPS 24342 | ETA 09:33:52
Time 01:50:32 | Step 162096458 / 1000000001 | TPS 24422.2 | ETA 09:31:49
Time 01:50:42 | Step 162340425 / 1000000001 | TPS 24396.6 | ETA 09:32:15
Time 01:50:52 | Step 162584725 / 1000000001 | TPS 24430 | ETA 09:31:18
Time 01:51:02 | Step 162830230 / 1000000001 | TPS 24550.5 | ETA 09:28:19
Time 01:51:12 | Step 163074643 / 1000000001 | TPS 24441.2 | ETA 09:30:42
Time 01:51:22 | Step 163319053 / 1000000001 | TPS 24441 | ETA 09:30:32
Time 01:51:32 | Step 163563349 / 1000000001 | TPS 24429.5 | ETA 09:30:38
Time 01:51:42 | Step 163808019 / 1000000001 | TPS 24467 | ETA 09:29:36
Time 01:51:52 | Step 164052594 / 1000000001 | TPS 24457.4 | ETA 09:29:39
Time 01:52:02 | Step 164297731 / 1000000001 | TPS 24513.7 | ETA 09:28:11
Time 01:52:12 | Step 164540573 / 1000000001 | TPS 24284.2 | ETA 09:33:23
Time 01:52:22 | Step 164785440 / 1000000001 | TPS 24486.7 | ETA 09:28:28
Time 01:52:32 | Step 165029360 / 1000000001 | TPS 24391.9 | ETA 09:30:31
Time 01:52:42 | Step 165273702 / 1000000001 | TPS 24434.2 | ETA 09:29:22
Time 01:52:52 | Step 165517645 / 1000000001 | TPS 24394.1 | ETA 09:30:08
Time 01:53:02 | Step 165762321 / 1000000001 | TPS 24467.6 | ETA 09:28:15
Time 01:53:12 | Step 166006360 / 1000000001 | TPS 24403.9 | ETA 09:29:34
Time 01:53:22 | Step 166249395 / 1000000001 | TPS 24303.4 | ETA 09:31:45
Time 01:53:32 | Step 166494121 / 1000000001 | TPS 24472.5 | ETA 09:27:38
Time 01:53:42 | Step 166738801 / 1000000001 | TPS 24467.7 | ETA 09:27:35
Time 01:53:52 | Step 166984536 / 1000000001 | TPS 24573.4 | ETA 09:24:59
Time 01:54:02 | Step 167228924 / 1000000001 | TPS 24438.8 | ETA 09:27:55
Time 01:54:12 | Step 167474475 / 1000000001 | TPS 24555.1 | ETA 09:25:04
Time 01:54:22 | Step 167718317 / 1000000001 | TPS 24384.1 | ETA 09:28:52
Time 01:54:32 | Step 167962899 / 1000000001 | TPS 24458.2 | ETA 09:26:58
Time 01:54:42 | Step 168207520 / 1000000001 | TPS 24462 | ETA 09:26:43
Time 01:54:52 | Step 168452436 / 1000000001 | TPS 24491.5 | ETA 09:25:52
Time 01:55:02 | Step 168696800 / 1000000001 | TPS 24436.4 | ETA 09:26:59
Time 01:55:12 | Step 168941347 / 1000000001 | TPS 24454.6 | ETA 09:26:23
Time 01:55:22 | Step 169186402 / 1000000001 | TPS 24505.4 | ETA 09:25:03
Time 01:55:32 | Step 169431306 / 1000000001 | TPS 24490.3 | ETA 09:25:14
Time 01:55:42 | Step 169676985 / 1000000001 | TPS 24567.8 | ETA 09:23:17
Time 01:55:52 | Step 169922618 / 1000000001 | TPS 24563.2 | ETA 09:23:13
Time 01:56:02 | Step 170167379 / 1000000001 | TPS 24476.1 | ETA 09:25:03
Time 01:56:12 | Step 170412242 / 1000000001 | TPS 24486.2 | ETA 09:24:39
Time 01:56:22 | Step 170652627 / 1000000001 | TPS 24038.4 | ETA 09:35:00
Time 01:56:32 | Step 170897802 / 1000000001 | TPS 24517.5 | ETA 09:23:36
Time 01:56:42 | Step 171141952 / 1000000001 | TPS 24415 | ETA 09:25:48
Time 01:56:52 | Step 171387466 / 1000000001 | TPS 24551.3 | ETA 09:22:30
Time 01:57:02 | Step 171631404 / 1000000001 | TPS 24393.7 | ETA 09:25:58
Time 01:57:12 | Step 171876301 / 1000000001 | TPS 24489.4 | ETA 09:23:35
Time 01:57:22 | Step 172121270 / 1000000001 | TPS 24496.9 | ETA 09:23:15
Time 01:57:32 | Step 172365900 / 1000000001 | TPS 24462.9 | ETA 09:23:52
Time 01:57:42 | Step 172610302 / 1000000001 | TPS 24440.2 | ETA 09:24:13
Time 01:57:52 | Step 172854191 / 1000000001 | TPS 24388.8 | ETA 09:25:14
Time 01:58:02 | Step 173099391 / 1000000001 | TPS 24520 | ETA 09:22:03
Time 01:58:12 | Step 173343557 / 1000000001 | TPS 24416.6 | ETA 09:24:16
Time 01:58:22 | Step 173588146 / 1000000001 | TPS 24458.8 | ETA 09:23:07
Time 01:58:32 | Step 173833277 / 1000000001 | TPS 24513 | ETA 09:21:43
Time 01:58:42 | Step 174077402 / 1000000001 | TPS 24412.5 | ETA 09:23:52
Time 01:58:52 | Step 174320227 / 1000000001 | TPS 24282.5 | ETA 09:26:43
Time 01:59:02 | Step 174564350 / 1000000001 | TPS 24412.3 | ETA 09:23:32
Time 01:59:12 | Step 174809792 / 1000000001 | TPS 24544.2 | ETA 09:20:20
Time 01:59:22 | Step 175054730 / 1000000001 | TPS 24493.8 | ETA 09:21:19
Time 01:59:32 | Step 175299552 / 1000000001 | TPS 24482.2 | ETA 09:21:25
Time 01:59:42 | Step 175543164 / 1000000001 | TPS 24361.1 | ETA 09:24:03
Time 01:59:52 | Step 175787346 / 1000000001 | TPS 24418.1 | ETA 09:22:34
Time 02:00:02 | Step 176032426 / 1000000001 | TPS 24508 | ETA 09:20:20
Time 02:00:12 | Step 176277415 / 1000000001 | TPS 24498.9 | ETA 09:20:22
Time 02:00:22 | Step 176521806 / 1000000001 | TPS 24439.1 | ETA 09:21:35
Time 02:00:32 | Step 176766635 / 1000000001 | TPS 24482.8 | ETA 09:20:24
Time 02:00:42 | Step 177011799 / 1000000001 | TPS 24516.3 | ETA 09:19:28
Time 02:00:52 | Step 177256580 / 1000000001 | TPS 24478 | ETA 09:20:11
Time 02:01:02 | Step 177501839 / 1000000001 | TPS 24525.8 | ETA 09:18:56
Time 02:01:12 | Step 177747050 / 1000000001 | TPS 24521 | ETA 09:18:52
Time 02:01:22 | Step 177992436 / 1000000001 | TPS 24538.6 | ETA 09:18:18
Time 02:01:32 | Step 178236185 / 1000000001 | TPS 24374.9 | ETA 09:21:53
Time 02:01:42 | Step 178480632 / 1000000001 | TPS 24444.6 | ETA 09:20:07
Time 02:01:52 | Step 178725090 / 1000000001 | TPS 24445.7 | ETA 09:19:55
Time 02:02:02 | Step 178969147 / 1000000001 | TPS 24405.7 | ETA 09:20:41
Time 02:02:12 | Step 179212949 / 1000000001 | TPS 24380.1 | ETA 09:21:06
Time 02:02:22 | Step 179457647 / 1000000001 | TPS 24469.8 | ETA 09:18:52
Time 02:02:32 | Step 179702374 / 1000000001 | TPS 24472.7 | ETA 09:18:38
Time 02:02:42 | Step 179946691 / 1000000001 | TPS 24431.6 | ETA 09:19:25
Time 02:02:52 | Step 180189682 / 1000000001 | TPS 24298.9 | ETA 09:22:18
Time 02:03:02 | Step 180434586 / 1000000001 | TPS 24490.3 | ETA 09:17:44
Time 02:03:12 | Step 180677465 / 1000000001 | TPS 24287.7 | ETA 09:22:14
Time 02:03:22 | Step 180921511 / 1000000001 | TPS 24404.6 | ETA 09:19:22
Time 02:03:32 | Step 181165080 / 1000000001 | TPS 24356.9 | ETA 09:20:18
Time 02:03:42 | Step 181409734 / 1000000001 | TPS 24465.4 | ETA 09:17:39
Time 02:03:52 | Step 181655174 / 1000000001 | TPS 24544 | ETA 09:15:41
Time 02:04:02 | Step 181900694 / 1000000001 | TPS 24552 | ETA 09:15:21
Time 02:04:12 | Step 182145839 / 1000000001 | TPS 24514.4 | ETA 09:16:02
Time 02:04:22 | Step 182390781 / 1000000001 | TPS 24494.2 | ETA 09:16:19
Time 02:04:32 | Step 182632892 / 1000000001 | TPS 24211.1 | ETA 09:22:40
Time 02:04:42 | Step 182876552 / 1000000001 | TPS 24366 | ETA 09:18:55
Time 02:04:52 | Step 183120990 / 1000000001 | TPS 24443.8 | ETA 09:16:58
Time 02:05:02 | Step 183365027 / 1000000001 | TPS 24403.6 | ETA 09:17:43
Time 02:05:12 | Step 183609791 / 1000000001 | TPS 24476.4 | ETA 09:15:54
Time 02:05:22 | Step 183853269 / 1000000001 | TPS 24347.8 | ETA 09:18:40
Time 02:05:32 | Step 184097627 / 1000000001 | TPS 24435.8 | ETA 09:16:29
Time 02:05:42 | Step 184342303 / 1000000001 | TPS 24467.5 | ETA 09:15:36
Time 02:05:52 | Step 184586311 / 1000000001 | TPS 24400.8 | ETA 09:16:57
Time 02:06:02 | Step 184829243 / 1000000001 | TPS 24293.2 | ETA 09:19:15
Time 02:06:12 | Step 185071525 / 1000000001 | TPS 24228.2 | ETA 09:20:35
Time 02:06:22 | Step 185315819 / 1000000001 | TPS 24429.3 | ETA 09:15:48
Time 02:06:32 | Step 185560265 / 1000000001 | TPS 24444.6 | ETA 09:15:17
Time 02:06:42 | Step 185804699 / 1000000001 | TPS 24443.3 | ETA 09:15:09
Time 02:06:52 | Step 186048150 / 1000000001 | TPS 24345 | ETA 09:17:14
Time 02:07:02 | Step 186291092 / 1000000001 | TPS 24294.2 | ETA 09:18:14
Time 02:07:12 | Step 186534487 / 1000000001 | TPS 24339.5 | ETA 09:17:01
Time 02:07:22 | Step 186779011 / 1000000001 | TPS 24452.3 | ETA 09:14:17
Time 02:07:32 | Step 187022308 / 1000000001 | TPS 24329.6 | ETA 09:16:55
Time 02:07:42 | Step 187267399 / 1000000001 | TPS 24509 | ETA 09:12:40
Time 02:07:52 | Step 187511925 / 1000000001 | TPS 24452.5 | ETA 09:13:47
Time 02:08:02 | Step 187756510 / 1000000001 | TPS 24458.4 | ETA 09:13:29
Time 02:08:12 | Step 188001539 / 1000000001 | TPS 24502.9 | ETA 09:12:18
Time 02:08:22 | Step 188245817 / 1000000001 | TPS 24427.7 | ETA 09:13:50
Time 02:08:32 | Step 188490829 / 1000000001 | TPS 24501.1 | ETA 09:12:01
Time 02:08:42 | Step 188734204 / 1000000001 | TPS 24337.4 | ETA 09:15:34
Time 02:08:52 | Step 188978234 / 1000000001 | TPS 24403 | ETA 09:13:54
Time 02:09:02 | Step 189222946 / 1000000001 | TPS 24471.1 | ETA 09:12:11
Time 02:09:12 | Step 189467766 / 1000000001 | TPS 24482 | ETA 09:11:47
Time 02:09:22 | Step 189711392 / 1000000001 | TPS 24362.5 | ETA 09:14:19
Time 02:09:32 | Step 189955458 / 1000000001 | TPS 24406.5 | ETA 09:13:09
Time 02:09:42 | Step 190199668 / 1000000001 | TPS 24420.9 | ETA 09:12:40
Time 02:09:52 | Step 190443650 / 1000000001 | TPS 24398.2 | ETA 09:13:01
Time 02:10:02 | Step 190687747 / 1000000001 | TPS 24409.6 | ETA 09:12:35
Time 02:10:12 | Step 190930603 / 1000000001 | TPS 24285.5 | ETA 09:15:14
Time 02:10:22 | Step 191175901 / 1000000001 | TPS 24529.5 | ETA 09:09:33
Time 02:10:32 | Step 191419535 / 1000000001 | TPS 24363.4 | ETA 09:13:08
Time 02:10:42 | Step 191662258 / 1000000001 | TPS 24272.3 | ETA 09:15:02
Time 02:10:52 | Step 191907177 / 1000000001 | TPS 24491.8 | ETA 09:09:54
Time 02:11:02 | Step 192151706 / 1000000001 | TPS 24452.9 | ETA 09:10:36
Time 02:11:12 | Step 192396114 / 1000000001 | TPS 24440.8 | ETA 09:10:43
Time 02:11:22 | Step 192640723 / 1000000001 | TPS 24460.8 | ETA 09:10:06
Time 02:11:32 | Step 192885933 / 1000000001 | TPS 24520.9 | ETA 09:08:35
Time 02:11:42 | Step 193129568 / 1000000001 | TPS 24363.4 | ETA 09:11:58
Time 02:11:52 | Step 193373767 / 1000000001 | TPS 24419.9 | ETA 09:10:31
Time 02:12:02 | Step 193618087 / 1000000001 | TPS 24431.9 | ETA 09:10:05
Time 02:12:12 | Step 193863395 / 1000000001 | TPS 24530.8 | ETA 09:07:42
Time 02:12:22 | Step 194108673 / 1000000001 | TPS 24527.6 | ETA 09:07:36
Time 02:12:32 | Step 194353772 / 1000000001 | TPS 24509.9 | ETA 09:07:50
Time 02:12:42 | Step 194596156 / 1000000001 | TPS 24238.3 | ETA 09:13:48
Time 02:12:52 | Step 194841982 / 1000000001 | TPS 24582.5 | ETA 09:05:53
Time 02:13:02 | Step 195086827 / 1000000001 | TPS 24484.3 | ETA 09:07:54
Time 02:13:12 | Step 195332326 / 1000000001 | TPS 24549.8 | ETA 09:06:16
Time 02:13:22 | Step 195576890 / 1000000001 | TPS 24456.3 | ETA 09:08:12
Time 02:13:32 | Step 195821048 / 1000000001 | TPS 24415.7 | ETA 09:08:56
Time 02:13:42 | Step 196065770 / 1000000001 | TPS 24472.2 | ETA 09:07:30
Time 02:13:52 | Step 196309847 / 1000000001 | TPS 24407.6 | ETA 09:08:47
Time 02:14:02 | Step 196554061 / 1000000001 | TPS 24421.4 | ETA 09:08:19
Time 02:14:12 | Step 196798313 / 1000000001 | TPS 24425.1 | ETA 09:08:04
Time 02:14:22 | Step 197041768 / 1000000001 | TPS 24345.5 | ETA 09:09:41
Time 02:14:32 | Step 197286061 / 1000000001 | TPS 24429.2 | ETA 09:07:38
Time 02:14:42 | Step 197530630 / 1000000001 | TPS 24456.7 | ETA 09:06:51
Time 02:14:52 | Step 197774842 / 1000000001 | TPS 24421.1 | ETA 09:07:29
Time 02:15:02 | Step 198019698 / 1000000001 | TPS 24485.6 | ETA 09:05:53
Time 02:15:12 | Step 198263621 / 1000000001 | TPS 24392.2 | ETA 09:07:48
Time 02:15:22 | Step 198508217 / 1000000001 | TPS 24459.5 | ETA 09:06:08
Time 02:15:32 | Step 198753261 / 1000000001 | TPS 24504.4 | ETA 09:04:58
Time 02:15:42 | Step 198997585 / 1000000001 | TPS 24432.4 | ETA 09:06:24
Time 02:15:52 | Step 199240582 / 1000000001 | TPS 24299.6 | ETA 09:09:13
Time 02:16:02 | Step 199484787 / 1000000001 | TPS 24420.4 | ETA 09:06:20
Time 02:16:12 | Step 199729034 / 1000000001 | TPS 24424.7 | ETA 09:06:04
Time 02:16:22 | Step 199973012 / 1000000001 | TPS 24397.7 | ETA 09:06:31
Time 02:16:32 | Step 200217108 / 1000000001 | TPS 24409.6 | ETA 09:06:05
Time 02:16:42 | Step 200460558 / 1000000001 | TPS 24345 | ETA 09:07:22
Time 02:16:52 | Step 200705450 / 1000000001 | TPS 24489.2 | ETA 09:03:58
Time 02:17:02 | Step 200950127 / 1000000001 | TPS 24467.7 | ETA 09:04:17
Time 02:17:12 | Step 201194695 / 1000000001 | TPS 24456.8 | ETA 09:04:21
Time 02:17:22 | Step 201439051 / 1000000001 | TPS 24435.6 | ETA 09:04:40
Time 02:17:32 | Step 201683554 / 1000000001 | TPS 24450.2 | ETA 09:04:10
Time 02:17:42 | Step 201928702 / 1000000001 | TPS 24514.8 | ETA 09:02:34
Time 02:17:52 | Step 202174225 / 1000000001 | TPS 24552.2 | ETA 09:01:35
Time 02:18:02 | Step 202419952 / 1000000001 | TPS 24572.5 | ETA 09:00:58
Time 02:18:12 | Step 202664657 / 1000000001 | TPS 24470.5 | ETA 09:03:03
Time 02:18:22 | Step 202909733 / 1000000001 | TPS 24507.5 | ETA 09:02:04
Time 02:18:32 | Step 203153568 / 1000000001 | TPS 24383.4 | ETA 09:04:39
Time 02:18:42 | Step 203398853 / 1000000001 | TPS 24528.5 | ETA 09:01:16
Time 02:18:52 | Step 203643741 / 1000000001 | TPS 24488.8 | ETA 09:01:59
Time 02:19:02 | Step 203888262 / 1000000001 | TPS 24452 | ETA 09:02:38
Time 02:19:12 | Step 204132453 / 1000000001 | TPS 24418.9 | ETA 09:03:12
Time 02:19:22 | Step 204377261 / 1000000001 | TPS 24480.8 | ETA 09:01:39
Time 02:19:32 | Step 204621433 / 1000000001 | TPS 24417.1 | ETA 09:02:54
Time 02:19:42 | Step 204866034 / 1000000001 | TPS 24460.1 | ETA 09:01:47
Time 02:19:52 | Step 205109629 / 1000000001 | TPS 24359.4 | ETA 09:03:51
Time 02:20:02 | Step 205353901 / 1000000001 | TPS 24426.9 | ETA 09:02:11
Time 02:20:12 | Step 205597727 / 1000000001 | TPS 24382.5 | ETA 09:03:00
Time 02:20:22 | Step 205842713 / 1000000001 | TPS 24498.5 | ETA 09:00:16
Time 02:20:32 | Step 206085130 / 1000000001 | TPS 24241.6 | ETA 09:05:50
Time 02:20:42 | Step 206330542 / 1000000001 | TPS 24541.1 | ETA 08:59:00
Time 02:20:52 | Step 206575108 / 1000000001 | TPS 24456.5 | ETA 09:00:42
Time 02:21:02 | Step 206820443 / 1000000001 | TPS 24533.5 | ETA 08:58:50
Time 02:21:12 | Step 207065733 / 1000000001 | TPS 24529 | ETA 08:58:46
Time 02:21:22 | Step 207308814 / 1000000001 | TPS 24308.1 | ETA 09:03:30
Time 02:21:32 | Step 207553259 / 1000000001 | TPS 24444.4 | ETA 09:00:18
Time 02:21:42 | Step 207797793 / 1000000001 | TPS 24453.3 | ETA 08:59:56
Time 02:21:52 | Step 208042250 / 1000000001 | TPS 24445.7 | ETA 08:59:56
Time 02:22:02 | Step 208285140 / 1000000001 | TPS 24288.9 | ETA 09:03:15
Time 02:22:12 | Step 208529296 / 1000000001 | TPS 24415.5 | ETA 09:00:16
Time 02:22:22 | Step 208774677 / 1000000001 | TPS 24538 | ETA 08:57:24
Time 02:22:32 | Step 209018593 / 1000000001 | TPS 24391.5 | ETA 09:00:28
Time 02:22:42 | Step 209263170 / 1000000001 | TPS 24457.6 | ETA 08:58:50
Time 02:22:52 | Step 209508058 / 1000000001 | TPS 24488.7 | ETA 08:57:59
Time 02:23:02 | Step 209752130 / 1000000001 | TPS 24407.1 | ETA 08:59:37
Time 02:23:12 | Step 209997318 / 1000000001 | TPS 24518.8 | ETA 08:57:00
Time 02:23:22 | Step 210241623 / 1000000001 | TPS 24430.4 | ETA 08:58:46
Time 02:23:32 | Step 210485036 / 1000000001 | TPS 24341.3 | ETA 09:00:35
Time 02:23:42 | Step 210730177 / 1000000001 | TPS 24514.1 | ETA 08:56:36
Time 02:23:52 | Step 210975488 / 1000000001 | TPS 24531.1 | ETA 08:56:04
Time 02:24:02 | Step 211219424 / 1000000001 | TPS 24393.5 | ETA 08:58:55
Time 02:24:12 | Step 211464115 / 1000000001 | TPS 24469 | ETA 08:57:05
Time 02:24:22 | Step 211708852 / 1000000001 | TPS 24473.7 | ETA 08:56:49
Time 02:24:32 | Step 211953897 / 1000000001 | TPS 24504.4 | ETA 08:55:59
Time 02:24:42 | Step 212198876 / 1000000001 | TPS 24497.8 | ETA 08:55:57
Time 02:24:52 | Step 212443630 / 1000000001 | TPS 24475.4 | ETA 08:56:17
Time 02:25:02 | Step 212687617 / 1000000001 | TPS 24398.6 | ETA 08:57:48
Time 02:25:12 | Step 212931717 / 1000000001 | TPS 24409.9 | ETA 08:57:23
Time 02:25:22 | Step 213174989 / 1000000001 | TPS 24327.1 | ETA 08:59:03
Time 02:25:32 | Step 213420912 / 1000000001 | TPS 24592.3 | ETA 08:53:04
Time 02:25:42 | Step 213665236 / 1000000001 | TPS 24432.3 | ETA 08:56:24
Time 02:25:52 | Step 213910433 / 1000000001 | TPS 24519.7 | ETA 08:54:19
Time 02:26:02 | Step 214154591 / 1000000001 | TPS 24415.8 | ETA 08:56:25
Time 02:26:12 | Step 214398922 / 1000000001 | TPS 24433.1 | ETA 08:55:53
Time 02:26:22 | Step 214643495 / 1000000001 | TPS 24457.2 | ETA 08:55:11
Time 02:26:32 | Step 214889324 / 1000000001 | TPS 24582.8 | ETA 08:52:17
Time 02:26:42 | Step 215133460 / 1000000001 | TPS 24413.5 | ETA 08:55:48
Time 02:26:52 | Step 215378321 / 1000000001 | TPS 24486 | ETA 08:54:03
Time 02:27:02 | Step 215622638 / 1000000001 | TPS 24431.6 | ETA 08:55:04
Time 02:27:12 | Step 215866345 / 1000000001 | TPS 24370.6 | ETA 08:56:15
Time 02:27:22 | Step 216111505 / 1000000001 | TPS 24516 | ETA 08:52:54
Time 02:27:32 | Step 216356399 / 1000000001 | TPS 24489.4 | ETA 08:53:19
Time 02:27:42 | Step 216601634 / 1000000001 | TPS 24523.5 | ETA 08:52:24
Time 02:27:52 | Step 216846056 / 1000000001 | TPS 24442.2 | ETA 08:54:01
Time 02:28:02 | Step 217089888 / 1000000001 | TPS 24383 | ETA 08:55:08
Time 02:28:12 | Step 217334271 / 1000000001 | TPS 24438.3 | ETA 08:53:46
Time 02:28:22 | Step 217578894 / 1000000001 | TPS 24462.3 | ETA 08:53:04
Time 02:28:32 | Step 217824342 / 1000000001 | TPS 24544.8 | ETA 08:51:07
Time 02:28:42 | Step 218069326 / 1000000001 | TPS 24498.4 | ETA 08:51:57
Time 02:28:52 | Step 218313817 / 1000000001 | TPS 24448.9 | ETA 08:52:52
Time 02:29:02 | Step 218557273 / 1000000001 | TPS 24345.6 | ETA 08:54:57
Time 02:29:12 | Step 218801521 / 1000000001 | TPS 24424.8 | ETA 08:53:03
Time 02:29:22 | Step 219045869 / 1000000001 | TPS 24434.7 | ETA 08:52:40
Time 02:29:32 | Step 219290586 / 1000000001 | TPS 24471.7 | ETA 08:51:42
Time 02:29:42 | Step 219535449 / 1000000001 | TPS 24486.1 | ETA 08:51:13
Time 02:29:52 | Step 219780837 / 1000000001 | TPS 24538.7 | ETA 08:49:55
Time 02:30:02 | Step 220024347 / 1000000001 | TPS 24351 | ETA 08:53:50
Time 02:30:12 | Step 220269600 / 1000000001 | TPS 24525.2 | ETA 08:49:53
Time 02:30:22 | Step 220514432 / 1000000001 | TPS 24483.2 | ETA 08:50:37
Time 02:30:32 | Step 220759519 / 1000000001 | TPS 24508.6 | ETA 08:49:54
Time 02:30:42 | Step 221005148 / 1000000001 | TPS 24562.8 | ETA 08:48:34
Time 02:30:52 | Step 221249597 / 1000000001 | TPS 24444.7 | ETA 08:50:57
Time 02:31:02 | Step 221494558 / 1000000001 | TPS 24496.1 | ETA 08:49:40
Time 02:31:12 | Step 221738896 / 1000000001 | TPS 24433.8 | ETA 08:50:51
Time 02:31:22 | Step 221983680 / 1000000001 | TPS 24478.3 | ETA 08:49:43
Time 02:31:32 | Step 222228210 / 1000000001 | TPS 24452.9 | ETA 08:50:06
Time 02:31:42 | Step 222473686 / 1000000001 | TPS 24547.6 | ETA 08:47:54
Time 02:31:52 | Step 222718568 / 1000000001 | TPS 24488.2 | ETA 08:49:01
Time 02:32:02 | Step 222963697 / 1000000001 | TPS 24512.8 | ETA 08:48:19
Time 02:32:12 | Step 223207783 / 1000000001 | TPS 24408.5 | ETA 08:50:24
Time 02:32:22 | Step 223452962 / 1000000001 | TPS 24517.8 | ETA 08:47:52
Time 02:32:32 | Step 223698804 / 1000000001 | TPS 24584.2 | ETA 08:46:17
Time 02:32:42 | Step 223943261 / 1000000001 | TPS 24445.5 | ETA 08:49:06
Time 02:32:52 | Step 224188482 / 1000000001 | TPS 24522.1 | ETA 08:47:17
Time 02:33:02 | Step 224433857 / 1000000001 | TPS 24537.5 | ETA 08:46:47
Time 02:33:12 | Step 224679314 / 1000000001 | TPS 24545.6 | ETA 08:46:26
Time 02:33:22 | Step 224924737 / 1000000001 | TPS 24542.2 | ETA 08:46:21
Time 02:33:32 | Step 225168936 / 1000000001 | TPS 24419.8 | ETA 08:48:49
Time 02:33:42 | Step 225413354 / 1000000001 | TPS 24441.8 | ETA 08:48:11
Time 02:33:52 | Step 225657558 / 1000000001 | TPS 24420.4 | ETA 08:48:28
Time 02:34:02 | Step 225902873 / 1000000001 | TPS 24531.4 | ETA 08:45:55
Time 02:34:12 | Step 226148141 / 1000000001 | TPS 24526.7 | ETA 08:45:51
Time 02:34:22 | Step 226392949 / 1000000001 | TPS 24480.7 | ETA 08:46:40
Time 02:34:32 | Step 226636841 / 1000000001 | TPS 24389.1 | ETA 08:48:29
Time 02:34:42 | Step 226881809 / 1000000001 | TPS 24496.7 | ETA 08:46:00
Time 02:34:52 | Step 227124315 / 1000000001 | TPS 24250.4 | ETA 08:51:10
Time 02:35:02 | Step 227369141 / 1000000001 | TPS 24482.6 | ETA 08:45:58
Time 02:35:12 | Step 227613829 / 1000000001 | TPS 24468.8 | ETA 08:46:06
Time 02:35:22 | Step 227859367 / 1000000001 | TPS 24553.8 | ETA 08:44:06
Time 02:35:32 | Step 228104324 / 1000000001 | TPS 24495.6 | ETA 08:45:11
Time 02:35:42 | Step 228348619 / 1000000001 | TPS 24429.4 | ETA 08:46:26
Time 02:35:52 | Step 228593160 / 1000000001 | TPS 24454 | ETA 08:45:45
Time 02:36:02 | Step 228838217 / 1000000001 | TPS 24505.7 | ETA 08:44:28
Time 02:36:12 | Step 229083437 / 1000000001 | TPS 24522 | ETA 08:43:57
Time 02:36:22 | Step 229329000 / 1000000001 | TPS 24556.3 | ETA 08:43:03
Time 02:36:32 | Step 229573587 / 1000000001 | TPS 24458.7 | ETA 08:44:59
Time 02:36:42 | Step 229818029 / 1000000001 | TPS 24444.1 | ETA 08:45:07
Time 02:36:52 | Step 230062569 / 1000000001 | TPS 24453.9 | ETA 08:44:45
Time 02:37:02 | Step 230307467 / 1000000001 | TPS 24489.8 | ETA 08:43:49
Time 02:37:12 | Step 230551426 / 1000000001 | TPS 24395.8 | ETA 08:45:40
Time 02:37:22 | Step 230795868 / 1000000001 | TPS 24444.2 | ETA 08:44:27
Time 02:37:32 | Step 231040937 / 1000000001 | TPS 24506.8 | ETA 08:42:57
Time 02:37:42 | Step 231285942 / 1000000001 | TPS 24500.5 | ETA 08:42:55
Time 02:37:52 | Step 231531225 / 1000000001 | TPS 24528.2 | ETA 08:42:09
Time 02:38:02 | Step 231776701 / 1000000001 | TPS 24547.5 | ETA 08:41:35
Time 02:38:12 | Step 232021659 / 1000000001 | TPS 24495.8 | ETA 08:42:31
Time 02:38:22 | Step 232266200 / 1000000001 | TPS 24454.1 | ETA 08:43:14
Time 02:38:32 | Step 232511194 / 1000000001 | TPS 24499.3 | ETA 08:42:06
Time 02:38:42 | Step 232756523 / 1000000001 | TPS 24532.8 | ETA 08:41:14
Time 02:38:52 | Step 233001778 / 1000000001 | TPS 24525.5 | ETA 08:41:13
Time 02:39:02 | Step 233246550 / 1000000001 | TPS 24477.2 | ETA 08:42:05
Time 02:39:12 | Step 233491582 / 1000000001 | TPS 24503.2 | ETA 08:41:21
Time 02:39:22 | Step 233735876 / 1000000001 | TPS 24429.2 | ETA 08:42:46
Time 02:39:32 | Step 233980456 / 1000000001 | TPS 24457.9 | ETA 08:41:59
Time 02:39:42 | Step 234225887 / 1000000001 | TPS 24543.1 | ETA 08:40:01
Time 02:39:52 | Step 234469201 / 1000000001 | TPS 24331 | ETA 08:44:23
Time 02:40:02 | Step 234714609 / 1000000001 | TPS 24540.6 | ETA 08:39:44
Time 02:40:12 | Step 234959521 / 1000000001 | TPS 24491 | ETA 08:40:37
Time 02:40:22 | Step 235205019 / 1000000001 | TPS 24549.8 | ETA 08:39:12
Time 02:40:32 | Step 235449171 / 1000000001 | TPS 24415.2 | ETA 08:41:54
Time 02:40:42 | Step 235693518 / 1000000001 | TPS 24434.7 | ETA 08:41:19
Time 02:40:52 | Step 235938678 / 1000000001 | TPS 24516 | ETA 08:39:25
Time 02:41:02 | Step 236182043 / 1000000001 | TPS 24336.5 | ETA 08:43:05
Time 02:41:12 | Step 236426518 / 1000000001 | TPS 24447.5 | ETA 08:40:33
Time 02:41:22 | Step 236670575 / 1000000001 | TPS 24405.6 | ETA 08:41:16
Time 02:41:32 | Step 236915272 / 1000000001 | TPS 24469.7 | ETA 08:39:44
Time 02:41:42 | Step 237158086 / 1000000001 | TPS 24281.4 | ETA 08:43:36
Time 02:41:52 | Step 237403312 / 1000000001 | TPS 24522.6 | ETA 08:38:17
Time 02:42:02 | Step 237648281 / 1000000001 | TPS 24496.8 | ETA 08:38:40
Time 02:42:12 | Step 237892726 / 1000000001 | TPS 24444.3 | ETA 08:39:37
Time 02:42:22 | Step 238137317 / 1000000001 | TPS 24458.9 | ETA 08:39:08
Time 02:42:32 | Step 238380831 / 1000000001 | TPS 24351.3 | ETA 08:41:16
Time 02:42:42 | Step 238623981 / 1000000001 | TPS 24314.9 | ETA 08:41:53
Time 02:42:52 | Step 238868764 / 1000000001 | TPS 24478.2 | ETA 08:38:14
Time 02:43:02 | Step 239113077 / 1000000001 | TPS 24431.2 | ETA 08:39:04
Time 02:43:12 | Step 239358301 / 1000000001 | TPS 24522 | ETA 08:36:58
Time 02:43:22 | Step 239602356 / 1000000001 | TPS 24405.5 | ETA 08:39:16
Time 02:43:32 | Step 239847982 / 1000000001 | TPS 24562.4 | ETA 08:35:47
Time 02:43:42 | Step 240092733 / 1000000001 | TPS 24475.1 | ETA 08:37:28
Time 02:43:52 | Step 240337673 / 1000000001 | TPS 24493.9 | ETA 08:36:54
Time 02:44:02 | Step 240582206 / 1000000001 | TPS 24453.3 | ETA 08:37:35
Time 02:44:12 | Step 240826897 / 1000000001 | TPS 24469 | ETA 08:37:05
Time 02:44:22 | Step 241071397 / 1000000001 | TPS 24449.9 | ETA 08:37:20
Time 02:44:32 | Step 241315767 / 1000000001 | TPS 24436.9 | ETA 08:37:26
Time 02:44:42 | Step 241560783 / 1000000001 | TPS 24501.6 | ETA 08:35:54
Time 02:44:52 | Step 241803979 / 1000000001 | TPS 24319.5 | ETA 08:39:36
Time 02:45:02 | Step 242049408 / 1000000001 | TPS 24542.7 | ETA 08:34:42
Time 02:45:12 | Step 242293543 / 1000000001 | TPS 24413.4 | ETA 08:37:16
Time 02:45:22 | Step 242538539 / 1000000001 | TPS 24499.6 | ETA 08:35:17
Time 02:45:32 | Step 242783017 / 1000000001 | TPS 24447.6 | ETA 08:36:13
Time 02:45:42 | Step 243027539 / 1000000001 | TPS 24452.2 | ETA 08:35:57
Time 02:45:52 | Step 243272480 / 1000000001 | TPS 24494 | ETA 08:34:54
Time 02:46:02 | Step 243516869 / 1000000001 | TPS 24438.9 | ETA 08:35:54
Time 02:46:12 | Step 243761509 / 1000000001 | TPS 24464 | ETA 08:35:12
Time 02:46:22 | Step 244005779 / 1000000001 | TPS 24426.9 | ETA 08:35:49
Time 02:46:32 | Step 244249942 / 1000000001 | TPS 24416.3 | ETA 08:35:52
Time 02:46:42 | Step 244494963 / 1000000001 | TPS 24502.1 | ETA 08:33:54
Time 02:46:52 | Step 244737839 / 1000000001 | TPS 24287.6 | ETA 08:38:16
Time 02:47:02 | Step 244981959 / 1000000001 | TPS 24412 | ETA 08:35:28
Time 02:47:12 | Step 245225277 / 1000000001 | TPS 24331.7 | ETA 08:37:00
Time 02:47:22 | Step 245469919 / 1000000001 | TPS 24464.2 | ETA 08:34:02
Time 02:47:32 | Step 245714845 / 1000000001 | TPS 24492.5 | ETA 08:33:16
Time 02:47:42 | Step 245959342 / 1000000001 | TPS 24449.7 | ETA 08:34:00
Time 02:47:52 | Step 246204171 / 1000000001 | TPS 24482.9 | ETA 08:33:08
Time 02:48:02 | Step 246447216 / 1000000001 | TPS 24304.4 | ETA 08:36:44
Time 02:48:12 | Step 246693003 / 1000000001 | TPS 24578.7 | ETA 08:30:48
Time 02:48:22 | Step 246937800 / 1000000001 | TPS 24479.6 | ETA 08:32:42
Time 02:48:32 | Step 247182311 / 1000000001 | TPS 24451.1 | ETA 08:33:08
Time 02:48:42 | Step 247426923 / 1000000001 | TPS 24461.2 | ETA 08:32:46
Time 02:48:52 | Step 247671726 / 1000000001 | TPS 24480.3 | ETA 08:32:12
Time 02:49:02 | Step 247915957 / 1000000001 | TPS 24423.1 | ETA 08:33:13
Time 02:49:12 | Step 248159810 / 1000000001 | TPS 24385.3 | ETA 08:33:51
[...]
Time 10:36:12 | Step 934211097 / 1000000001 | TPS 24460.7 | ETA 00:44:49
Time 10:36:22 | Step 934456529 / 1000000001 | TPS 24543.2 | ETA 00:44:30
Time 10:36:32 | Step 934701064 / 1000000001 | TPS 24453.4 | ETA 00:44:30
Time 10:36:42 | Step 934946117 / 1000000001 | TPS 24505.3 | ETA 00:44:14
Time 10:36:52 | Step 935189709 / 1000000001 | TPS 24359.1 | ETA 00:44:20
Time 10:37:02 | Step 935434740 / 1000000001 | TPS 24503.1 | ETA 00:43:54
Time 10:37:12 | Step 935680805 / 1000000001 | TPS 24606.4 | ETA 00:43:33
Time 10:37:22 | Step 935925993 / 1000000001 | TPS 24518.8 | ETA 00:43:33
Time 10:37:32 | Step 936171897 / 1000000001 | TPS 24590.3 | ETA 00:43:15
Time 10:37:42 | Step 936417818 / 1000000001 | TPS 24592 | ETA 00:43:05
Time 10:37:52 | Step 936663198 / 1000000001 | TPS 24538 | ETA 00:43:01
Time 10:38:02 | Step 936908099 / 1000000001 | TPS 24490.1 | ETA 00:42:56
Time 10:38:12 | Step 937153028 / 1000000001 | TPS 24492.9 | ETA 00:42:45
Time 10:38:22 | Step 937397866 / 1000000001 | TPS 24483.7 | ETA 00:42:36
Time 10:38:32 | Step 937643559 / 1000000001 | TPS 24569.3 | ETA 00:42:17
Time 10:38:42 | Step 937888179 / 1000000001 | TPS 24461.8 | ETA 00:42:19
Time 10:38:52 | Step 938133057 / 1000000001 | TPS 24487.8 | ETA 00:42:06
Time 10:39:02 | Step 938377545 / 1000000001 | TPS 24448.8 | ETA 00:42:00
Time 10:39:12 | Step 938622611 / 1000000001 | TPS 24506.6 | ETA 00:41:44
Time 10:39:22 | Step 938867329 / 1000000001 | TPS 24471.7 | ETA 00:41:38
Time 10:39:32 | Step 939111238 / 1000000001 | TPS 24390.8 | ETA 00:41:36
Time 10:39:42 | Step 939356765 / 1000000001 | TPS 24552.6 | ETA 00:41:09
Time 10:39:52 | Step 939601473 / 1000000001 | TPS 24470.8 | ETA 00:41:08
Time 10:40:02 | Step 939846125 / 1000000001 | TPS 24465.1 | ETA 00:40:58
Time 10:40:12 | Step 940092129 / 1000000001 | TPS 24600.2 | ETA 00:40:35
Time 10:40:22 | Step 940336902 / 1000000001 | TPS 24477.3 | ETA 00:40:37
Time 10:40:32 | Step 940581284 / 1000000001 | TPS 24438.1 | ETA 00:40:31
Time 10:40:42 | Step 940825019 / 1000000001 | TPS 24373.5 | ETA 00:40:27
Time 10:40:52 | Step 941071050 / 1000000001 | TPS 24603 | ETA 00:39:55
Time 10:41:02 | Step 941316224 / 1000000001 | TPS 24517.3 | ETA 00:39:53
Time 10:41:12 | Step 941561787 / 1000000001 | TPS 24556.2 | ETA 00:39:39
Time 10:41:22 | Step 941807262 / 1000000001 | TPS 24547.5 | ETA 00:39:30
Time 10:41:32 | Step 942052873 / 1000000001 | TPS 24561 | ETA 00:39:19
Time 10:41:42 | Step 942297784 / 1000000001 | TPS 24491 | ETA 00:39:16
Time 10:41:52 | Step 942543013 / 1000000001 | TPS 24522.9 | ETA 00:39:02
Time 10:42:02 | Step 942788385 / 1000000001 | TPS 24537.2 | ETA 00:38:51
Time 10:42:12 | Step 943033061 / 1000000001 | TPS 24467.5 | ETA 00:38:48
Time 10:42:22 | Step 943278615 / 1000000001 | TPS 24555.3 | ETA 00:38:29
Time 10:42:32 | Step 943524281 / 1000000001 | TPS 24566.6 | ETA 00:38:18
Time 10:42:42 | Step 943769386 / 1000000001 | TPS 24510.5 | ETA 00:38:14
Time 10:42:52 | Step 944013297 / 1000000001 | TPS 24391.1 | ETA 00:38:15
Time 10:43:02 | Step 944259297 / 1000000001 | TPS 24599.9 | ETA 00:37:45
Time 10:43:12 | Step 944504384 / 1000000001 | TPS 24508.7 | ETA 00:37:44
Time 10:43:22 | Step 944749910 / 1000000001 | TPS 24552.4 | ETA 00:37:30
Time 10:43:32 | Step 944994107 / 1000000001 | TPS 24419.7 | ETA 00:37:32
Time 10:43:42 | Step 945239072 / 1000000001 | TPS 24496.4 | ETA 00:37:15
Time 10:43:52 | Step 945484155 / 1000000001 | TPS 24508.3 | ETA 00:37:04
Time 10:44:02 | Step 945729556 / 1000000001 | TPS 24540.1 | ETA 00:36:51
Time 10:44:12 | Step 945974896 / 1000000001 | TPS 24534 | ETA 00:36:42
Time 10:44:22 | Step 946219274 / 1000000001 | TPS 24437.8 | ETA 00:36:40
Time 10:44:32 | Step 946464867 / 1000000001 | TPS 24559.2 | ETA 00:36:19
Time 10:44:42 | Step 946710696 / 1000000001 | TPS 24582.9 | ETA 00:36:07
Time 10:44:52 | Step 946956043 / 1000000001 | TPS 24534.6 | ETA 00:36:02
Time 10:45:02 | Step 947201400 / 1000000001 | TPS 24535.7 | ETA 00:35:51
Time 10:45:12 | Step 947445975 / 1000000001 | TPS 24457.5 | ETA 00:35:48
Time 10:45:22 | Step 947691475 / 1000000001 | TPS 24550 | ETA 00:35:30
Time 10:45:32 | Step 947936551 / 1000000001 | TPS 24507.5 | ETA 00:35:24
Time 10:45:42 | Step 948181515 / 1000000001 | TPS 24496.3 | ETA 00:35:15
Time 10:45:52 | Step 948426418 / 1000000001 | TPS 24490.3 | ETA 00:35:05
Time 10:46:02 | Step 948671708 / 1000000001 | TPS 24528.9 | ETA 00:34:52
Time 10:46:12 | Step 948916457 / 1000000001 | TPS 24474.9 | ETA 00:34:47
Time 10:46:22 | Step 949161967 / 1000000001 | TPS 24551 | ETA 00:34:30
Time 10:46:32 | Step 949406653 / 1000000001 | TPS 24468.4 | ETA 00:34:27
Time 10:46:42 | Step 949652554 / 1000000001 | TPS 24589.9 | ETA 00:34:07
Time 10:46:52 | Step 949897474 / 1000000001 | TPS 24491.9 | ETA 00:34:05
Time 10:47:02 | Step 950142819 / 1000000001 | TPS 24534.4 | ETA 00:33:52
Time 10:47:12 | Step 950387882 / 1000000001 | TPS 24506.2 | ETA 00:33:44
Time 10:47:22 | Step 950634109 / 1000000001 | TPS 24622.5 | ETA 00:33:24
Time 10:47:32 | Step 950878106 / 1000000001 | TPS 24399.7 | ETA 00:33:33
Time 10:47:42 | Step 951122588 / 1000000001 | TPS 24448.2 | ETA 00:33:19
Time 10:47:52 | Step 951367795 / 1000000001 | TPS 24520.7 | ETA 00:33:03
Time 10:48:02 | Step 951613038 / 1000000001 | TPS 24524.3 | ETA 00:32:53
Time 10:48:12 | Step 951858737 / 1000000001 | TPS 24569.9 | ETA 00:32:39
Time 10:48:22 | Step 952102900 / 1000000001 | TPS 24416.3 | ETA 00:32:41
Time 10:48:32 | Step 952347603 / 1000000001 | TPS 24470.3 | ETA 00:32:27
Time 10:48:42 | Step 952590630 / 1000000001 | TPS 24302.7 | ETA 00:32:30
Time 10:48:52 | Step 952836413 / 1000000001 | TPS 24578.2 | ETA 00:31:58
Time 10:49:02 | Step 953080371 / 1000000001 | TPS 24395.8 | ETA 00:32:03
Time 10:49:12 | Step 953325248 / 1000000001 | TPS 24487.7 | ETA 00:31:46
Time 10:49:22 | Step 953570294 / 1000000001 | TPS 24504.5 | ETA 00:31:34
Time 10:49:32 | Step 953815459 / 1000000001 | TPS 24516.5 | ETA 00:31:23
Time 10:49:42 | Step 954060548 / 1000000001 | TPS 24508.8 | ETA 00:31:14
Time 10:49:52 | Step 954304608 / 1000000001 | TPS 24405.9 | ETA 00:31:12
Time 10:50:02 | Step 954548543 / 1000000001 | TPS 24393.4 | ETA 00:31:03
Time 10:50:12 | Step 954794935 / 1000000001 | TPS 24639.1 | ETA 00:30:34
Time 10:50:22 | Step 955040309 / 1000000001 | TPS 24537.2 | ETA 00:30:32
Time 10:50:32 | Step 955285521 / 1000000001 | TPS 24521.2 | ETA 00:30:23
Time 10:50:42 | Step 955530317 / 1000000001 | TPS 24479.6 | ETA 00:30:16
Time 10:50:52 | Step 955775421 / 1000000001 | TPS 24510.4 | ETA 00:30:04
Time 10:51:02 | Step 956019718 / 1000000001 | TPS 24429.6 | ETA 00:30:00
Time 10:51:12 | Step 956265022 / 1000000001 | TPS 24530.4 | ETA 00:29:42
Time 10:51:22 | Step 956509776 / 1000000001 | TPS 24475.3 | ETA 00:29:36
Time 10:51:32 | Step 956754076 / 1000000001 | TPS 24430 | ETA 00:29:30
Time 10:51:42 | Step 956999264 / 1000000001 | TPS 24518.8 | ETA 00:29:13
Time 10:51:52 | Step 957243087 / 1000000001 | TPS 24382.2 | ETA 00:29:13
Time 10:52:02 | Step 957487087 / 1000000001 | TPS 24400 | ETA 00:29:02
Time 10:52:12 | Step 957731956 / 1000000001 | TPS 24486.7 | ETA 00:28:46
Time 10:52:22 | Step 957976126 / 1000000001 | TPS 24417 | ETA 00:28:41
Time 10:52:32 | Step 958221165 / 1000000001 | TPS 24503.8 | ETA 00:28:24
Time 10:52:42 | Step 958465924 / 1000000001 | TPS 24475.9 | ETA 00:28:16
Time 10:52:52 | Step 958710815 / 1000000001 | TPS 24489 | ETA 00:28:06
Time 10:53:02 | Step 958955285 / 1000000001 | TPS 24446.8 | ETA 00:27:58
Time 10:53:12 | Step 959200033 / 1000000001 | TPS 24474.8 | ETA 00:27:47
Time 10:53:22 | Step 959444467 / 1000000001 | TPS 24443.4 | ETA 00:27:39
Time 10:53:32 | Step 959688497 / 1000000001 | TPS 24403 | ETA 00:27:31
Time 10:53:42 | Step 959933515 / 1000000001 | TPS 24501.7 | ETA 00:27:15
Time 10:53:52 | Step 960179703 / 1000000001 | TPS 24618.8 | ETA 00:26:57
Time 10:54:02 | Step 960424670 / 1000000001 | TPS 24496.7 | ETA 00:26:55
Time 10:54:12 | Step 960669471 / 1000000001 | TPS 24480.1 | ETA 00:26:46
Time 10:54:22 | Step 960914280 / 1000000001 | TPS 24480.9 | ETA 00:26:36
Time 10:54:32 | Step 961158101 / 1000000001 | TPS 24382 | ETA 00:26:33
Time 10:54:42 | Step 961403279 / 1000000001 | TPS 24517.8 | ETA 00:26:14
Time 10:54:52 | Step 961647877 / 1000000001 | TPS 24459.7 | ETA 00:26:07
Time 10:55:02 | Step 961892556 / 1000000001 | TPS 24467.9 | ETA 00:25:57
Time 10:55:12 | Step 962135119 / 1000000001 | TPS 24256.3 | ETA 00:26:01
Time 10:55:22 | Step 962380914 / 1000000001 | TPS 24579.4 | ETA 00:25:30
Time 10:55:32 | Step 962624907 / 1000000001 | TPS 24399.2 | ETA 00:25:31
Time 10:55:42 | Step 962869511 / 1000000001 | TPS 24460.4 | ETA 00:25:17
Time 10:55:52 | Step 963114639 / 1000000001 | TPS 24512.8 | ETA 00:25:04
Time 10:56:02 | Step 963359745 / 1000000001 | TPS 24510.6 | ETA 00:24:54
Time 10:56:12 | Step 963603847 / 1000000001 | TPS 24410.2 | ETA 00:24:51
Time 10:56:22 | Step 963847973 / 1000000001 | TPS 24412.6 | ETA 00:24:40
Time 10:56:32 | Step 964093161 / 1000000001 | TPS 24518.7 | ETA 00:24:24
Time 10:56:42 | Step 964338542 / 1000000001 | TPS 24538.1 | ETA 00:24:13
Time 10:56:52 | Step 964583633 / 1000000001 | TPS 24509.1 | ETA 00:24:05
Time 10:57:02 | Step 964829034 / 1000000001 | TPS 24540 | ETA 00:23:53
Time 10:57:12 | Step 965074590 / 1000000001 | TPS 24555.5 | ETA 00:23:42
Time 10:57:22 | Step 965319963 / 1000000001 | TPS 24537.2 | ETA 00:23:33
Time 10:57:32 | Step 965565949 / 1000000001 | TPS 24598.5 | ETA 00:23:19
Time 10:57:42 | Step 965810988 / 1000000001 | TPS 24503.8 | ETA 00:23:15
Time 10:57:52 | Step 966055801 / 1000000001 | TPS 24481.2 | ETA 00:23:06
Time 10:58:02 | Step 966301386 / 1000000001 | TPS 24558.3 | ETA 00:22:52
Time 10:58:12 | Step 966546261 / 1000000001 | TPS 24487.4 | ETA 00:22:46
Time 10:58:22 | Step 966791245 / 1000000001 | TPS 24498.3 | ETA 00:22:35
Time 10:58:32 | Step 967035813 / 1000000001 | TPS 24456.7 | ETA 00:22:27
Time 10:58:42 | Step 967280854 / 1000000001 | TPS 24504.1 | ETA 00:22:15
Time 10:58:52 | Step 967527099 / 1000000001 | TPS 24624.3 | ETA 00:21:58
Time 10:59:02 | Step 967772699 / 1000000001 | TPS 24560 | ETA 00:21:52
Time 10:59:12 | Step 968018418 / 1000000001 | TPS 24571.8 | ETA 00:21:41
Time 10:59:22 | Step 968264684 / 1000000001 | TPS 24626.6 | ETA 00:21:28
Time 10:59:32 | Step 968509716 / 1000000001 | TPS 24503.1 | ETA 00:21:25
Time 10:59:42 | Step 968754717 / 1000000001 | TPS 24500 | ETA 00:21:15
Time 10:59:52 | Step 969000001 / 1000000001 | TPS 24527.2 | ETA 00:21:03
Time 11:00:02 | Step 969244334 / 1000000001 | TPS 24433.2 | ETA 00:20:58
Time 11:00:12 | Step 969489691 / 1000000001 | TPS 24535.7 | ETA 00:20:43
Time 11:00:22 | Step 969735369 / 1000000001 | TPS 24567.8 | ETA 00:20:31
Time 11:00:32 | Step 969979210 / 1000000001 | TPS 24384 | ETA 00:20:31
Time 11:00:42 | Step 970224890 / 1000000001 | TPS 24568 | ETA 00:20:11
Time 11:00:52 | Step 970470105 / 1000000001 | TPS 24521.4 | ETA 00:20:04
Time 11:01:02 | Step 970713702 / 1000000001 | TPS 24359.6 | ETA 00:20:02
Time 11:01:12 | Step 970959865 / 1000000001 | TPS 24616.1 | ETA 00:19:39
Time 11:01:22 | Step 971202426 / 1000000001 | TPS 24256 | ETA 00:19:47
Time 11:01:32 | Step 971446486 / 1000000001 | TPS 24405.9 | ETA 00:19:29
Time 11:01:42 | Step 971691320 / 1000000001 | TPS 24483.3 | ETA 00:19:16
Time 11:01:52 | Step 971935758 / 1000000001 | TPS 24443.8 | ETA 00:19:08
Time 11:02:02 | Step 972180641 / 1000000001 | TPS 24488.2 | ETA 00:18:56
Time 11:02:12 | Step 972425502 / 1000000001 | TPS 24486 | ETA 00:18:46
Time 11:02:22 | Step 972669271 / 1000000001 | TPS 24376.9 | ETA 00:18:41
Time 11:02:32 | Step 972914499 / 1000000001 | TPS 24522.7 | ETA 00:18:24
Time 11:02:42 | Step 973158798 / 1000000001 | TPS 24429.9 | ETA 00:18:18
Time 11:02:52 | Step 973402604 / 1000000001 | TPS 24380.5 | ETA 00:18:10
Time 11:03:02 | Step 973647001 / 1000000001 | TPS 24439.6 | ETA 00:17:58
Time 11:03:12 | Step 973891427 / 1000000001 | TPS 24442.6 | ETA 00:17:48
Time 11:03:22 | Step 974136453 / 1000000001 | TPS 24502.5 | ETA 00:17:35
Time 11:03:32 | Step 974380979 / 1000000001 | TPS 24452.6 | ETA 00:17:27
Time 11:03:42 | Step 974626197 / 1000000001 | TPS 24521.8 | ETA 00:17:14
Time 11:03:52 | Step 974870604 / 1000000001 | TPS 24440.6 | ETA 00:17:08
Time 11:04:02 | Step 975115793 / 1000000001 | TPS 24518.8 | ETA 00:16:54
Time 11:04:12 | Step 975361003 / 1000000001 | TPS 24520.9 | ETA 00:16:44
Time 11:04:22 | Step 975605772 / 1000000001 | TPS 24476.8 | ETA 00:16:36
Time 11:04:32 | Step 975850400 / 1000000001 | TPS 24462.7 | ETA 00:16:27
Time 11:04:42 | Step 976093797 / 1000000001 | TPS 24339.5 | ETA 00:16:22
Time 11:04:52 | Step 976338935 / 1000000001 | TPS 24513.7 | ETA 00:16:05
Time 11:05:02 | Step 976583774 / 1000000001 | TPS 24483.8 | ETA 00:15:56
Time 11:05:12 | Step 976827692 / 1000000001 | TPS 24391.8 | ETA 00:15:50
Time 11:05:22 | Step 977072455 / 1000000001 | TPS 24476.3 | ETA 00:15:36
Time 11:05:32 | Step 977316882 / 1000000001 | TPS 24442.7 | ETA 00:15:28
Time 11:05:42 | Step 977561005 / 1000000001 | TPS 24412.2 | ETA 00:15:19
Time 11:05:52 | Step 977806201 / 1000000001 | TPS 24519.2 | ETA 00:15:05
Time 11:06:02 | Step 978050827 / 1000000001 | TPS 24462.6 | ETA 00:14:57
Time 11:06:12 | Step 978295514 / 1000000001 | TPS 24468.7 | ETA 00:14:47
Time 11:06:22 | Step 978540088 / 1000000001 | TPS 24457.3 | ETA 00:14:37
Time 11:06:32 | Step 978785504 / 1000000001 | TPS 24541.6 | ETA 00:14:24
Time 11:06:42 | Step 979030674 / 1000000001 | TPS 24517 | ETA 00:14:15
Time 11:06:52 | Step 979275089 / 1000000001 | TPS 24441.4 | ETA 00:14:07
Time 11:07:02 | Step 979520441 / 1000000001 | TPS 24535.2 | ETA 00:13:54
Time 11:07:12 | Step 979766203 / 1000000001 | TPS 24576.2 | ETA 00:13:43
Time 11:07:22 | Step 980011137 / 1000000001 | TPS 24493.4 | ETA 00:13:36
Time 11:07:32 | Step 980254870 / 1000000001 | TPS 24373.2 | ETA 00:13:30
Time 11:07:42 | Step 980499111 / 1000000001 | TPS 24424 | ETA 00:13:18
Time 11:07:52 | Step 980741613 / 1000000001 | TPS 24250.1 | ETA 00:13:14
Time 11:08:02 | Step 980986659 / 1000000001 | TPS 24504.5 | ETA 00:12:55
Time 11:08:12 | Step 981231922 / 1000000001 | TPS 24526.3 | ETA 00:12:45
Time 11:08:22 | Step 981477416 / 1000000001 | TPS 24549.3 | ETA 00:12:34
Time 11:08:32 | Step 981722489 / 1000000001 | TPS 24507.2 | ETA 00:12:25
Time 11:08:42 | Step 981968239 / 1000000001 | TPS 24574.9 | ETA 00:12:13
Time 11:08:52 | Step 982213096 / 1000000001 | TPS 24485.6 | ETA 00:12:06
Time 11:09:02 | Step 982458109 / 1000000001 | TPS 24501.2 | ETA 00:11:55
Time 11:09:12 | Step 982703826 / 1000000001 | TPS 24571.6 | ETA 00:11:43
Time 11:09:22 | Step 982948650 / 1000000001 | TPS 24482.4 | ETA 00:11:36
Time 11:09:32 | Step 983194629 / 1000000001 | TPS 24597.9 | ETA 00:11:23
Time 11:09:42 | Step 983439535 / 1000000001 | TPS 24490.6 | ETA 00:11:16
Time 11:09:52 | Step 983685464 / 1000000001 | TPS 24592.9 | ETA 00:11:03
Time 11:10:02 | Step 983928008 / 1000000001 | TPS 24254.3 | ETA 00:11:02
Time 11:10:12 | Step 984173689 / 1000000001 | TPS 24567.9 | ETA 00:10:44
Time 11:10:22 | Step 984416764 / 1000000001 | TPS 24307.4 | ETA 00:10:41
Time 11:10:32 | Step 984662342 / 1000000001 | TPS 24557.8 | ETA 00:10:24
Time 11:10:42 | Step 984906922 / 1000000001 | TPS 24457.9 | ETA 00:10:17
Time 11:10:52 | Step 985151184 / 1000000001 | TPS 24426.2 | ETA 00:10:07
Time 11:11:02 | Step 985397086 / 1000000001 | TPS 24590.1 | ETA 00:09:53
Time 11:11:12 | Step 985641713 / 1000000001 | TPS 24462.6 | ETA 00:09:46
Time 11:11:22 | Step 985885849 / 1000000001 | TPS 24413.4 | ETA 00:09:38
Time 11:11:32 | Step 986128769 / 1000000001 | TPS 24291.9 | ETA 00:09:31
Time 11:11:42 | Step 986373733 / 1000000001 | TPS 24496.4 | ETA 00:09:16
Time 11:11:52 | Step 986618650 / 1000000001 | TPS 24491.6 | ETA 00:09:06
Time 11:12:02 | Step 986863575 / 1000000001 | TPS 24492.4 | ETA 00:08:56
Time 11:12:12 | Step 987108355 / 1000000001 | TPS 24477.8 | ETA 00:08:46
Time 11:12:22 | Step 987354596 / 1000000001 | TPS 24624 | ETA 00:08:33
Time 11:12:32 | Step 987599288 / 1000000001 | TPS 24469.1 | ETA 00:08:26
Time 11:12:42 | Step 987844447 / 1000000001 | TPS 24515.9 | ETA 00:08:15
Time 11:12:52 | Step 988089594 / 1000000001 | TPS 24514.7 | ETA 00:08:05
Time 11:13:02 | Step 988334072 / 1000000001 | TPS 24447.8 | ETA 00:07:57
Time 11:13:12 | Step 988578462 / 1000000001 | TPS 24439 | ETA 00:07:47
Time 11:13:22 | Step 988823426 / 1000000001 | TPS 24496.3 | ETA 00:07:36
Time 11:13:32 | Step 989068522 / 1000000001 | TPS 24509.6 | ETA 00:07:26
Time 11:13:42 | Step 989313583 / 1000000001 | TPS 24506 | ETA 00:07:16
Time 11:13:52 | Step 989557509 / 1000000001 | TPS 24392.5 | ETA 00:07:08
Time 11:14:02 | Step 989802300 / 1000000001 | TPS 24479.1 | ETA 00:06:56
Time 11:14:12 | Step 990043985 / 1000000001 | TPS 24168.5 | ETA 00:06:51
Time 11:14:22 | Step 990289516 / 1000000001 | TPS 24553.1 | ETA 00:06:35
Time 11:14:32 | Step 990534752 / 1000000001 | TPS 24523.6 | ETA 00:06:25
Time 11:14:42 | Step 990779519 / 1000000001 | TPS 24476.6 | ETA 00:06:16
Time 11:14:52 | Step 991022439 / 1000000001 | TPS 24292 | ETA 00:06:09
Time 11:15:02 | Step 991267652 / 1000000001 | TPS 24521.3 | ETA 00:05:56
Time 11:15:12 | Step 991512719 / 1000000001 | TPS 24506.7 | ETA 00:05:46
Time 11:15:22 | Step 991757858 / 1000000001 | TPS 24513.9 | ETA 00:05:36
Time 11:15:32 | Step 992003106 / 1000000001 | TPS 24524.8 | ETA 00:05:26
Time 11:15:42 | Step 992247948 / 1000000001 | TPS 24484.1 | ETA 00:05:16
Time 11:15:52 | Step 992492378 / 1000000001 | TPS 24443 | ETA 00:05:07
Time 11:16:02 | Step 992736682 / 1000000001 | TPS 24430.3 | ETA 00:04:57
Time 11:16:12 | Step 992980397 / 1000000001 | TPS 24371.3 | ETA 00:04:48
Time 11:16:22 | Step 993224724 / 1000000001 | TPS 24432.7 | ETA 00:04:37
Time 11:16:32 | Step 993469911 / 1000000001 | TPS 24518.7 | ETA 00:04:26
Time 11:16:42 | Step 993714396 / 1000000001 | TPS 24448.5 | ETA 00:04:17
Time 11:16:52 | Step 993958881 / 1000000001 | TPS 24448.5 | ETA 00:04:07
Time 11:17:02 | Step 994203038 / 1000000001 | TPS 24415.7 | ETA 00:03:57
Time 11:17:12 | Step 994447647 / 1000000001 | TPS 24460.8 | ETA 00:03:46
Time 11:17:22 | Step 994693456 / 1000000001 | TPS 24580.8 | ETA 00:03:35
Time 11:17:32 | Step 994938230 / 1000000001 | TPS 24477.4 | ETA 00:03:26
Time 11:17:42 | Step 995183701 / 1000000001 | TPS 24547 | ETA 00:03:16
Time 11:17:52 | Step 995429268 / 1000000001 | TPS 24556.5 | ETA 00:03:06
Time 11:18:02 | Step 995673945 / 1000000001 | TPS 24467.7 | ETA 00:02:56
Time 11:18:12 | Step 995918968 / 1000000001 | TPS 24502.2 | ETA 00:02:46
Time 11:18:22 | Step 996163769 / 1000000001 | TPS 24480.1 | ETA 00:02:36
Time 11:18:32 | Step 996409209 / 1000000001 | TPS 24543.9 | ETA 00:02:26
Time 11:18:42 | Step 996654100 / 1000000001 | TPS 24489.1 | ETA 00:02:16
Time 11:18:52 | Step 996898526 / 1000000001 | TPS 24442.6 | ETA 00:02:06
Time 11:19:02 | Step 997144654 / 1000000001 | TPS 24612.8 | ETA 00:01:56
Time 11:19:12 | Step 997389386 / 1000000001 | TPS 24473.1 | ETA 00:01:46
Time 11:19:22 | Step 997634380 / 1000000001 | TPS 24499.4 | ETA 00:01:36
Time 11:19:32 | Step 997879722 / 1000000001 | TPS 24534.1 | ETA 00:01:26
Time 11:19:42 | Step 998124818 / 1000000001 | TPS 24509.6 | ETA 00:01:16
Time 11:19:52 | Step 998369899 / 1000000001 | TPS 24508.1 | ETA 00:01:06
Time 11:20:02 | Step 998613728 / 1000000001 | TPS 24382.9 | ETA 00:00:56
Time 11:20:12 | Step 998858107 / 1000000001 | TPS 24437.8 | ETA 00:00:46
Time 11:20:22 | Step 999103924 / 1000000001 | TPS 24581.7 | ETA 00:00:36
Time 11:20:32 | Step 999347982 / 1000000001 | TPS 24405.7 | ETA 00:00:26
Time 11:20:42 | Step 999593640 / 1000000001 | TPS 24565.8 | ETA 00:00:16
Time 11:20:52 | Step 999839676 / 1000000001 | TPS 24603.5 | ETA 00:00:06
Time 11:20:58 | Step 1000000001 / 1000000001 | TPS 24555.8 | ETA 00:00:00
Average TPS: 24475.8
---------
-- Neighborlist stats:
120504476 normal updates / 3333334 forced updates / 0 dangerous updates
n_neigh_min: 0 / n_neigh_max: 6 / n_neigh_avg: 0.817481
shortest rebuild period: 5
-- Cell list stats:
Dimension: 45, 45, 45
n_min    : 0 / n_max: 4 / n_avg: 0.0740741
** run complete **
