HOOMD-blue 2.9.6 CUDA (11.1) SINGLE SSE SSE2 
Compiled: 05/10/21
Copyright (c) 2009-2019 The Regents of the University of Michigan.
-----
You are using HOOMD-blue. Please cite the following:
* J A Anderson, J Glaser, and S C Glotzer. "HOOMD-blue: A Python package for
  high-performance molecular dynamics and hard particle Monte Carlo
  simulations", Computational Materials Science 173 (2020) 109363
-----
HOOMD-blue is running on the following GPU(s):
 [0] NVIDIA H100 80GB HBM3 132 SM_9.0 @ 1.98 GHz, 81007 MiB DRAM, MNG
Running on the GPU
Charges (in mV) are:
[-30.0, 70.0]
[105.0, 85.0]
Particle types: ['N', 'P']
Radius of N, P and ionic radii(s):  [105.0, 85.0, 93.947]
radiusN: 105.0
radiusP: 85.0
Electrostatic prefactors are:  {('N', 'N'): 102.28291877424755, ('N', 'P'): -213.53718600187193, ('P', 'P'): 450.8024938568689}
Steric prefactors are:  {('N', 'N'): 407.15040790523716, ('N', 'P'): 368.3741785809289, ('P', 'P'): 329.59794925662055}
Lattice_type:  sc
Lattice site is: N
Putting satellite particles at a distance of 273.000000 from center particles
num_satellite_per_center: 1
snapshot_creation.py:075  |      center_unit_cell = lattice(a=lattice_spacing*2*radius_latticesite)
center_in_uc: 1
satellite_in_uc: 1
Total number of particles in each unit cell: 2
Total lattice spacing: 846.3000000000001
Setting mass N: 1.884999 (mass P: 1.000000)
['N', 'P']
Total number of lattice sites: 6750
[[-5924.10009766 -5924.10009766 -5924.10009766]
 [-5924.10009766 -5651.10009766 -5924.10009766]
 [-5924.10009766 -5924.10009766 -5077.79980469]
 ...
 [ 5924.09960938  6197.10058594  5077.79980469]
 [ 5924.09960938  5924.09960938  5924.09960938]
 [ 5924.09960938  6197.10058594  5924.09960938]]
Seed positions:
None
snapshot_creation.py:172  |      system=hoomd.init.read_snapshot(snapshot)
notice(2): Group "all" created containing 6750 particles
Box size:
Box: Lx=12694.5 Ly=12694.5 Lz=12694.5 xy=0.0 xz=0.0 yz=0.0 dimensions=3
max_x,max_y,max_z
6347.25 6347.25 6347.25
snapshot_creation.py:183  |          hoomd.update.box_resize(Lx = 2.*max_x+8*max_radius, Ly = 2.*max_y+8*max_radius, Lz=2.*max_z+8*max_radius, period=None,scale_particles=False)
Updated box size in presence of closed walls:
Box: Lx=13534.5 Ly=13534.5 Lz=13534.5 xy=0.0 xz=0.0 yz=0.0 dimensions=3
Number of particles in system before adding any seed crystal:  6750
Removing lattice particles that overlap with particles of the seed crystal.........
add_interactions.py:006  |  nl = hoomd.md.nlist.cell()
add_interactions.py:007  |  nl.reset_exclusions(exclusions = ['1-2', 'body','constraint'])
notice(2): -- Neighborlist exclusion statistics -- :
notice(2): Particles with 0 exclusions             : 6750
notice(2): Neighbors included by diameter          : no
notice(2): Neighbors excluded when in the same body: no
Turning on closed walls along x/y/z with max_z: 6767.25
add_interactions.py:032  |      wall_force = hoomd.md.wall.slj(wall_group,r_cut=max_radius*(2.0**(1.0/6.0)))
notice(2): Notice: slj set d_max=210.0
add_interactions.py:033  |      wall_force.force_coeff.set('N',epsilon=1,sigma=radiusN,alpha=0,r_cut=radiusN*(2.0**(1.0/6.0)))
add_interactions.py:034  |      wall_force.force_coeff.set('P',epsilon=1,sigma=radiusP,alpha=0,r_cut=radiusP*(2.0**(1.0/6.0)))
add_interactions.py:057  |  table = hoomd.md.pair.table(width=5000,nlist=nl)
*******************************************************************************************************************************************************************************
Setting potential for pair ('N', 'N') with radius_sum 210.0
add_interactions.py:080  |          table.pair_coeff.set(typei,typej, func=screened_potential_shifted_force,rmin=1.00005*radius_sum, rmax=potential_range,coeff=dict(radius_sum=radius_sum, steric_prefactor=steric_prefactors[key],electrostatic_prefactor=electrostatic_prefactors[key],H=sum_brush_lengths,d=debye_length),)
*******************************************************************************************************************************************************************************
Setting potential for pair ('N', 'P') with radius_sum 190.0
add_interactions.py:080  |          table.pair_coeff.set(typei,typej, func=screened_potential_shifted_force,rmin=1.00005*radius_sum, rmax=potential_range,coeff=dict(radius_sum=radius_sum, steric_prefactor=steric_prefactors[key],electrostatic_prefactor=electrostatic_prefactors[key],H=sum_brush_lengths,d=debye_length),)
*******************************************************************************************************************************************************************************
Setting potential for pair ('P', 'P') with radius_sum 170.0
add_interactions.py:080  |          table.pair_coeff.set(typei,typej, func=screened_potential_shifted_force,rmin=1.00005*radius_sum, rmax=potential_range,coeff=dict(radius_sum=radius_sum, steric_prefactor=steric_prefactors[key],electrostatic_prefactor=electrostatic_prefactors[key],H=sum_brush_lengths,d=debye_length),)
i,j,key,potential_min, potential_min_location
(0, 0, ('N', 'N'), -8.470329472543003e-22, 318.28399999999573)
(0, 1, ('N', 'P'), -6.30003822949128, 208.5894041999891)
(1, 1, ('P', 'P'), -3.3881317890172014e-21, 278.2840000000191)
run_dlvo_spheres_metal.py:011  |  all = hoomd.group.all()
run_dlvo_spheres_metal.py:000  |  from add_interactions import *

if temperature.find(':')>0:
    temp_list = np.array( temperature.split(':') ,dtype=float)
    assert len(temp_list)%2==0 and len(temp_list)>=0,"must give an even number of temperature arguments"
    temp_list = [tuple(x) for x in temp_list.reshape((-1,2))]
    temperature = hoomd.variant.linear_interp(points=temp_list)
else:
    temperature = float(temperature)

all = hoomd.group.all()


hoomd.analyze.log(filename=outputlogfile,
mode: langevin
run_dlvo_spheres_metal.py:029  |      hoomd.md.integrate.mode_standard(dt=dt)
run_dlvo_spheres_metal.py:030  |      ld=hoomd.md.integrate.langevin(group=all, kT=temperature, seed=seed)
notice(2): integrate.langevin/bd is using specified gamma values
Using gamma value as: 0.001
run_dlvo_spheres_metal.py:033  |          ld.set_gamma(particle_type,gamma)
run_dlvo_spheres_metal.py:033  |          ld.set_gamma(particle_type,gamma)
run_dlvo_spheres_metal.py:057  |  hoomd.dump.gsd(outputgsdfile, period=dump_frequency, group=all, overwrite=True,dynamic=['attribute','momentum','topology'])
run_dlvo_spheres_metal.py:058  |  hoomd.run(nsteps)
** starting run **
Time 00:00:10 | Step 261564 / 1000000001 | TPS 26156.4 | ETA 10:37:01
Time 00:00:20 | Step 522931 / 1000000001 | TPS 26136.6 | ETA 10:37:20
Time 00:00:30 | Step 784152 / 1000000001 | TPS 26122 | ETA 10:37:31
Time 00:00:40 | Step 1043852 / 1000000001 | TPS 25970 | ETA 10:41:05
Time 00:00:50 | Step 1303345 / 1000000001 | TPS 25949.3 | ETA 10:41:26
Time 00:01:00 | Step 1563469 / 1000000001 | TPS 26012.4 | ETA 10:39:43
Time 00:01:10 | Step 1823681 / 1000000001 | TPS 26021.2 | ETA 10:39:20
Time 00:01:20 | Step 2083537 / 1000000001 | TPS 25985.6 | ETA 10:40:02
Time 00:01:30 | Step 2342028 / 1000000001 | TPS 25849.1 | ETA 10:43:15
Time 00:01:40 | Step 2602168 / 1000000001 | TPS 26013.9 | ETA 10:39:00
Time 00:01:50 | Step 2862749 / 1000000001 | TPS 26058.1 | ETA 10:37:45
Time 00:02:00 | Step 3122722 / 1000000001 | TPS 25997.2 | ETA 10:39:05
Time 00:02:10 | Step 3382357 / 1000000001 | TPS 25963.4 | ETA 10:39:45
Time 00:02:20 | Step 3642480 / 1000000001 | TPS 26012.3 | ETA 10:38:23
Time 00:02:30 | Step 3902427 / 1000000001 | TPS 25994.7 | ETA 10:38:39
Time 00:02:40 | Step 4161824 / 1000000001 | TPS 25939.7 | ETA 10:39:50
Time 00:02:50 | Step 4421813 / 1000000001 | TPS 25998.8 | ETA 10:38:13
Time 00:03:00 | Step 4682072 / 1000000001 | TPS 26025.9 | ETA 10:37:23
Time 00:03:10 | Step 4942233 / 1000000001 | TPS 26016.1 | ETA 10:37:27
Time 00:03:20 | Step 5202051 / 1000000001 | TPS 25981.8 | ETA 10:38:08
Time 00:03:30 | Step 5461026 / 1000000001 | TPS 25897.4 | ETA 10:40:02
Time 00:03:40 | Step 5721157 / 1000000001 | TPS 26013 | ETA 10:37:02
Time 00:03:50 | Step 5980334 / 1000000001 | TPS 25917.7 | ETA 10:39:12
Time 00:04:00 | Step 6239107 / 1000000001 | TPS 25877.2 | ETA 10:40:02
Time 00:04:10 | Step 6498721 / 1000000001 | TPS 25961.2 | ETA 10:37:48
Time 00:04:20 | Step 6757401 / 1000000001 | TPS 25867.8 | ETA 10:39:56
Time 00:04:30 | Step 7015438 / 1000000001 | TPS 25803.7 | ETA 10:41:22
Time 00:04:40 | Step 7275660 / 1000000001 | TPS 26022.2 | ETA 10:35:49
Time 00:04:50 | Step 7532943 / 1000000001 | TPS 25728.1 | ETA 10:42:55
Time 00:05:00 | Step 7791495 / 1000000001 | TPS 25855.1 | ETA 10:39:35
Time 00:05:10 | Step 8051035 / 1000000001 | TPS 25954 | ETA 10:36:59
Time 00:05:20 | Step 8310601 / 1000000001 | TPS 25956.2 | ETA 10:36:46
Time 00:05:30 | Step 8570268 / 1000000001 | TPS 25966.7 | ETA 10:36:20
Time 00:05:40 | Step 8830929 / 1000000001 | TPS 26066 | ETA 10:33:45
Time 00:05:50 | Step 9090179 / 1000000001 | TPS 25925 | ETA 10:37:02
Time 00:06:00 | Step 9349817 / 1000000001 | TPS 25963.8 | ETA 10:35:55
Time 00:06:10 | Step 9609687 / 1000000001 | TPS 25987 | ETA 10:35:11
Time 00:06:20 | Step 9870325 / 1000000001 | TPS 26063.6 | ETA 10:33:08
Time 00:06:30 | Step 10130415 / 1000000001 | TPS 26008.9 | ETA 10:34:18
Time 00:06:40 | Step 10389639 / 1000000001 | TPS 25922.4 | ETA 10:36:15
Time 00:06:50 | Step 10649494 / 1000000001 | TPS 25985.4 | ETA 10:34:33
Time 00:07:00 | Step 10909413 / 1000000001 | TPS 25991.9 | ETA 10:34:13
Time 00:07:10 | Step 11169428 / 1000000001 | TPS 26001.5 | ETA 10:33:49
Time 00:07:20 | Step 11429811 / 1000000001 | TPS 26038.3 | ETA 10:32:46
Time 00:07:30 | Step 11689201 / 1000000001 | TPS 25938.6 | ETA 10:35:01
Time 00:07:40 | Step 11949166 / 1000000001 | TPS 25996.5 | ETA 10:33:27
Time 00:07:50 | Step 12210028 / 1000000001 | TPS 26086.2 | ETA 10:31:06
Time 00:08:00 | Step 12470329 / 1000000001 | TPS 26030 | ETA 10:32:18
Time 00:08:10 | Step 12730715 / 1000000001 | TPS 26038.6 | ETA 10:31:55
Time 00:08:20 | Step 12990600 / 1000000001 | TPS 25988.5 | ETA 10:32:58
Time 00:08:30 | Step 13249958 / 1000000001 | TPS 25935.8 | ETA 10:34:05
Time 00:08:40 | Step 13509870 / 1000000001 | TPS 25991.1 | ETA 10:32:34
Time 00:08:50 | Step 13770713 / 1000000001 | TPS 26084.2 | ETA 10:30:09
Time 00:09:00 | Step 14030883 / 1000000001 | TPS 26016.9 | ETA 10:31:37
Time 00:09:10 | Step 14291062 / 1000000001 | TPS 26017.8 | ETA 10:31:25
Time 00:09:20 | Step 14551565 / 1000000001 | TPS 26050.2 | ETA 10:30:28
Time 00:09:30 | Step 14811626 / 1000000001 | TPS 26006 | ETA 10:31:23
Time 00:09:40 | Step 15071436 / 1000000001 | TPS 25981 | ETA 10:31:49
Time 00:09:50 | Step 15331305 / 1000000001 | TPS 25986.8 | ETA 10:31:31
Time 00:10:00 | Step 15591584 / 1000000001 | TPS 26027.8 | ETA 10:30:21
Time 00:10:10 | Step 15851581 / 1000000001 | TPS 25999.6 | ETA 10:30:52
Time 00:10:20 | Step 16111828 / 1000000001 | TPS 26024.7 | ETA 10:30:05
Time 00:10:30 | Step 16372373 / 1000000001 | TPS 26054.4 | ETA 10:29:12
Time 00:10:40 | Step 16632654 / 1000000001 | TPS 26028 | ETA 10:29:41
Time 00:10:50 | Step 16892934 / 1000000001 | TPS 26028 | ETA 10:29:31
Time 00:11:00 | Step 17152549 / 1000000001 | TPS 25961.5 | ETA 10:30:57
Time 00:11:10 | Step 17412674 / 1000000001 | TPS 26012.5 | ETA 10:29:33
Time 00:11:20 | Step 17673087 / 1000000001 | TPS 26041.2 | ETA 10:28:41
Time 00:11:30 | Step 17932964 / 1000000001 | TPS 25987.6 | ETA 10:29:49
Time 00:11:40 | Step 18193441 / 1000000001 | TPS 26047.7 | ETA 10:28:12
Time 00:11:50 | Step 18453315 / 1000000001 | TPS 25987.4 | ETA 10:29:30
Time 00:12:00 | Step 18713045 / 1000000001 | TPS 25972.9 | ETA 10:29:41
Time 00:12:10 | Step 18972606 / 1000000001 | TPS 25956.1 | ETA 10:29:55
Time 00:12:20 | Step 19232245 / 1000000001 | TPS 25963.8 | ETA 10:29:34
Time 00:12:30 | Step 19491650 / 1000000001 | TPS 25940.5 | ETA 10:29:58
Time 00:12:40 | Step 19750934 / 1000000001 | TPS 25928.4 | ETA 10:30:06
Time 00:12:50 | Step 20010465 / 1000000001 | TPS 25953 | ETA 10:29:20
Time 00:13:00 | Step 20271088 / 1000000001 | TPS 26062.3 | ETA 10:26:31
Time 00:13:10 | Step 20531363 / 1000000001 | TPS 26027.4 | ETA 10:27:12
Time 00:13:20 | Step 20790024 / 1000000001 | TPS 25866.1 | ETA 10:30:56
Time 00:13:30 | Step 21050343 / 1000000001 | TPS 26031.9 | ETA 10:26:45
Time 00:13:40 | Step 21309900 / 1000000001 | TPS 25955.6 | ETA 10:28:26
Time 00:13:50 | Step 21569826 / 1000000001 | TPS 25992.5 | ETA 10:27:22
Time 00:14:00 | Step 21830357 / 1000000001 | TPS 26053.1 | ETA 10:25:45
Time 00:14:10 | Step 22090772 / 1000000001 | TPS 26041.5 | ETA 10:25:52
Time 00:14:20 | Step 22351003 / 1000000001 | TPS 26023.1 | ETA 10:26:08
Time 00:14:30 | Step 22611287 / 1000000001 | TPS 26028.4 | ETA 10:25:50
Time 00:14:40 | Step 22871700 / 1000000001 | TPS 26041.2 | ETA 10:25:22
Time 00:14:50 | Step 23131694 / 1000000001 | TPS 25999.4 | ETA 10:26:12
Time 00:15:00 | Step 23389293 / 1000000001 | TPS 25759.8 | ETA 10:31:52
Time 00:15:10 | Step 23649601 / 1000000001 | TPS 26030.3 | ETA 10:25:08
Time 00:15:20 | Step 23909790 / 1000000001 | TPS 26018.9 | ETA 10:25:14
Time 00:15:30 | Step 24169829 / 1000000001 | TPS 26003.8 | ETA 10:25:26
Time 00:15:40 | Step 24430028 / 1000000001 | TPS 26019.8 | ETA 10:24:53
Time 00:15:50 | Step 24690208 / 1000000001 | TPS 26017.8 | ETA 10:24:46
Time 00:16:00 | Step 24950306 / 1000000001 | TPS 26009.8 | ETA 10:24:47
Time 00:16:10 | Step 25208766 / 1000000001 | TPS 25845.9 | ETA 10:28:35
Time 00:16:20 | Step 25468921 / 1000000001 | TPS 26015.4 | ETA 10:24:19
Time 00:16:30 | Step 25729067 / 1000000001 | TPS 26014.5 | ETA 10:24:11
Time 00:16:40 | Step 25989226 / 1000000001 | TPS 26015.8 | ETA 10:23:59
Time 00:16:50 | Step 26248740 / 1000000001 | TPS 25951.4 | ETA 10:25:22
Time 00:17:00 | Step 26507752 / 1000000001 | TPS 25901.2 | ETA 10:26:24
Time 00:17:10 | Step 26767420 / 1000000001 | TPS 25966.7 | ETA 10:24:39
Time 00:17:20 | Step 27026627 / 1000000001 | TPS 25920.7 | ETA 10:25:36
Time 00:17:30 | Step 27285160 / 1000000001 | TPS 25853.2 | ETA 10:27:04
Time 00:17:40 | Step 27544182 / 1000000001 | TPS 25902.2 | ETA 10:25:43
Time 00:17:50 | Step 27803900 / 1000000001 | TPS 25971.7 | ETA 10:23:52
Time 00:18:00 | Step 28062450 / 1000000001 | TPS 25855 | ETA 10:26:31
Time 00:18:10 | Step 28321784 / 1000000001 | TPS 25933.4 | ETA 10:24:28
Time 00:18:20 | Step 28582264 / 1000000001 | TPS 26048 | ETA 10:21:33
Time 00:18:30 | Step 28842748 / 1000000001 | TPS 26048.3 | ETA 10:21:22
Time 00:18:40 | Step 29102837 / 1000000001 | TPS 26008.9 | ETA 10:22:09
Time 00:18:50 | Step 29362251 / 1000000001 | TPS 25941.3 | ETA 10:23:36
Time 00:19:00 | Step 29621303 / 1000000001 | TPS 25905.1 | ETA 10:24:18
Time 00:19:10 | Step 29881823 / 1000000001 | TPS 26052 | ETA 10:20:37
Time 00:19:20 | Step 30139846 / 1000000001 | TPS 25802.2 | ETA 10:26:28
Time 00:19:30 | Step 30399135 / 1000000001 | TPS 25928.7 | ETA 10:23:14
Time 00:19:40 | Step 30658598 / 1000000001 | TPS 25946.2 | ETA 10:22:39
Time 00:19:50 | Step 30918682 / 1000000001 | TPS 26008.2 | ETA 10:21:00
Time 00:20:00 | Step 31178377 / 1000000001 | TPS 25969.4 | ETA 10:21:46
Time 00:20:10 | Step 31437558 / 1000000001 | TPS 25918 | ETA 10:22:50
Time 00:20:20 | Step 31696730 / 1000000001 | TPS 25917 | ETA 10:22:41
Time 00:20:30 | Step 31955559 / 1000000001 | TPS 25882.8 | ETA 10:23:21
Time 00:20:40 | Step 32215919 / 1000000001 | TPS 26035.9 | ETA 10:19:31
Time 00:20:50 | Step 32474903 / 1000000001 | TPS 25898.3 | ETA 10:22:38
Time 00:21:00 | Step 32734086 / 1000000001 | TPS 25918.3 | ETA 10:21:59
Time 00:21:10 | Step 32993352 / 1000000001 | TPS 25926.6 | ETA 10:21:37
Time 00:21:20 | Step 33253577 / 1000000001 | TPS 26022.5 | ETA 10:19:10
Time 00:21:30 | Step 33513159 / 1000000001 | TPS 25958.1 | ETA 10:20:32
Time 00:21:40 | Step 33773005 / 1000000001 | TPS 25984.5 | ETA 10:19:44
Time 00:21:50 | Step 34033213 / 1000000001 | TPS 26020.8 | ETA 10:18:42
Time 00:22:00 | Step 34293511 / 1000000001 | TPS 26029.8 | ETA 10:18:20
Time 00:22:10 | Step 34554062 / 1000000001 | TPS 26055.1 | ETA 10:17:34
Time 00:22:20 | Step 34814036 / 1000000001 | TPS 25997.4 | ETA 10:18:46
Time 00:22:30 | Step 35074094 / 1000000001 | TPS 26005.8 | ETA 10:18:24
Time 00:22:40 | Step 35334731 / 1000000001 | TPS 26063.6 | ETA 10:16:51
Time 00:22:50 | Step 35595090 / 1000000001 | TPS 26035.8 | ETA 10:17:21
Time 00:23:00 | Step 35854620 / 1000000001 | TPS 25952.9 | ETA 10:19:09
Time 00:23:10 | Step 36114761 / 1000000001 | TPS 26014.1 | ETA 10:17:32
Time 00:23:20 | Step 36374738 / 1000000001 | TPS 25997.7 | ETA 10:17:45
Time 00:23:30 | Step 36634719 / 1000000001 | TPS 25998 | ETA 10:17:35
Time 00:23:40 | Step 36893864 / 1000000001 | TPS 25914.4 | ETA 10:19:24
Time 00:23:50 | Step 37154051 / 1000000001 | TPS 26018.6 | ETA 10:16:46
Time 00:24:00 | Step 37414579 / 1000000001 | TPS 26052.6 | ETA 10:15:47
Time 00:24:10 | Step 37675029 / 1000000001 | TPS 26045 | ETA 10:15:48
Time 00:24:20 | Step 37935420 / 1000000001 | TPS 26039.1 | ETA 10:15:46
Time 00:24:30 | Step 38195371 / 1000000001 | TPS 25995.1 | ETA 10:16:39
Time 00:24:40 | Step 38456163 / 1000000001 | TPS 26079.2 | ETA 10:14:30
Time 00:24:50 | Step 38716311 / 1000000001 | TPS 26014.8 | ETA 10:15:51
Time 00:25:00 | Step 38976137 / 1000000001 | TPS 25982.6 | ETA 10:16:27
Time 00:25:10 | Step 39235828 / 1000000001 | TPS 25969 | ETA 10:16:36
Time 00:25:20 | Step 39496255 / 1000000001 | TPS 26042.7 | ETA 10:14:41
Time 00:25:30 | Step 39756998 / 1000000001 | TPS 26074.2 | ETA 10:13:47
Time 00:25:40 | Step 40016963 / 1000000001 | TPS 25996.5 | ETA 10:15:27
Time 00:25:50 | Step 40276945 / 1000000001 | TPS 25998.1 | ETA 10:15:15
Time 00:26:00 | Step 40537064 / 1000000001 | TPS 26011.9 | ETA 10:14:45
Time 00:26:10 | Step 40797047 / 1000000001 | TPS 25998.3 | ETA 10:14:54
Time 00:26:20 | Step 41056855 / 1000000001 | TPS 25980.7 | ETA 10:15:09
Time 00:26:30 | Step 41316403 / 1000000001 | TPS 25954.8 | ETA 10:15:36
Time 00:26:40 | Step 41577011 / 1000000001 | TPS 26060.8 | ETA 10:12:56
Time 00:26:50 | Step 41837627 / 1000000001 | TPS 26061.5 | ETA 10:12:45
Time 00:27:00 | Step 42096783 / 1000000001 | TPS 25915.4 | ETA 10:16:02
Time 00:27:10 | Step 42356316 / 1000000001 | TPS 25953.3 | ETA 10:14:58
Time 00:27:20 | Step 42616759 / 1000000001 | TPS 26044.3 | ETA 10:12:39
Time 00:27:30 | Step 42876315 / 1000000001 | TPS 25955.6 | ETA 10:14:35
Time 00:27:40 | Step 43135698 / 1000000001 | TPS 25938.2 | ETA 10:14:50
Time 00:27:50 | Step 43395894 / 1000000001 | TPS 26019.6 | ETA 10:12:44
Time 00:28:00 | Step 43654957 / 1000000001 | TPS 25906.3 | ETA 10:15:15
Time 00:28:10 | Step 43914985 / 1000000001 | TPS 26002.7 | ETA 10:12:48
Time 00:28:20 | Step 44174987 / 1000000001 | TPS 26000.2 | ETA 10:12:42
Time 00:28:30 | Step 44434861 / 1000000001 | TPS 25987.4 | ETA 10:12:50
Time 00:28:40 | Step 44695018 / 1000000001 | TPS 26015.5 | ETA 10:12:00
Time 00:28:50 | Step 44954998 / 1000000001 | TPS 25997.9 | ETA 10:12:15
Time 00:29:00 | Step 45215075 / 1000000001 | TPS 26007.7 | ETA 10:11:51
Time 00:29:10 | Step 45475347 / 1000000001 | TPS 26027.2 | ETA 10:11:14
Time 00:29:20 | Step 45735095 / 1000000001 | TPS 25974.7 | ETA 10:12:18
Time 00:29:30 | Step 45994910 / 1000000001 | TPS 25981.4 | ETA 10:11:58
Time 00:29:40 | Step 46254865 / 1000000001 | TPS 25995.5 | ETA 10:11:28
Time 00:29:50 | Step 46514973 / 1000000001 | TPS 26010.7 | ETA 10:10:57
Time 00:30:00 | Step 46774582 / 1000000001 | TPS 25960.9 | ETA 10:11:57
Time 00:30:10 | Step 47034232 / 1000000001 | TPS 25965 | ETA 10:11:41
Time 00:30:20 | Step 47294077 / 1000000001 | TPS 25984.5 | ETA 10:11:04
Time 00:30:30 | Step 47553891 / 1000000001 | TPS 25981.3 | ETA 10:10:58
Time 00:30:40 | Step 47813220 / 1000000001 | TPS 25932.9 | ETA 10:11:57
Time 00:30:50 | Step 48072912 / 1000000001 | TPS 25969.1 | ETA 10:10:56
Time 00:31:00 | Step 48333216 / 1000000001 | TPS 26030.3 | ETA 10:09:19
Time 00:31:10 | Step 48593144 / 1000000001 | TPS 25992.7 | ETA 10:10:02
Time 00:31:20 | Step 48853214 / 1000000001 | TPS 26006.9 | ETA 10:09:32
Time 00:31:30 | Step 49111552 / 1000000001 | TPS 25833.8 | ETA 10:13:27
Time 00:31:40 | Step 49370072 / 1000000001 | TPS 25852 | ETA 10:12:52
Time 00:31:50 | Step 49630661 / 1000000001 | TPS 26058.9 | ETA 10:07:50
Time 00:32:00 | Step 49889600 / 1000000001 | TPS 25893.8 | ETA 10:11:32
Time 00:32:10 | Step 50149485 / 1000000001 | TPS 25988.5 | ETA 10:09:08
Time 00:32:20 | Step 50409307 / 1000000001 | TPS 25982.1 | ETA 10:09:07
Time 00:32:30 | Step 50668553 / 1000000001 | TPS 25924.6 | ETA 10:10:19
Time 00:32:40 | Step 50928418 / 1000000001 | TPS 25986.5 | ETA 10:08:41
Time 00:32:50 | Step 51188785 / 1000000001 | TPS 26036.6 | ETA 10:07:21
Time 00:33:00 | Step 51449217 / 1000000001 | TPS 26043.1 | ETA 10:07:02
Time 00:33:10 | Step 51709000 / 1000000001 | TPS 25978.2 | ETA 10:08:23
Time 00:33:20 | Step 51967561 / 1000000001 | TPS 25856 | ETA 10:11:05
Time 00:33:30 | Step 52227034 / 1000000001 | TPS 25947.3 | ETA 10:08:46
Time 00:33:40 | Step 52486201 / 1000000001 | TPS 25916.4 | ETA 10:09:20
Time 00:33:50 | Step 52745753 / 1000000001 | TPS 25955 | ETA 10:08:16
Time 00:34:00 | Step 53006114 / 1000000001 | TPS 26035.9 | ETA 10:06:12
Time 00:34:10 | Step 53266921 / 1000000001 | TPS 26080.7 | ETA 10:05:00
Time 00:34:20 | Step 53527494 / 1000000001 | TPS 26057.2 | ETA 10:05:22
Time 00:34:30 | Step 53787695 / 1000000001 | TPS 26020 | ETA 10:06:04
Time 00:34:40 | Step 54047596 / 1000000001 | TPS 25990 | ETA 10:06:36
Time 00:34:50 | Step 54307283 / 1000000001 | TPS 25968.6 | ETA 10:06:56
Time 00:35:00 | Step 54567883 / 1000000001 | TPS 26060 | ETA 10:04:39
Time 00:35:10 | Step 54828512 / 1000000001 | TPS 26062.8 | ETA 10:04:25
Time 00:35:20 | Step 55088909 / 1000000001 | TPS 26039.7 | ETA 10:04:47
Time 00:35:30 | Step 55348859 / 1000000001 | TPS 25994.9 | ETA 10:05:39
Time 00:35:40 | Step 55608592 / 1000000001 | TPS 25973.3 | ETA 10:06:00
Time 00:35:50 | Step 55868001 / 1000000001 | TPS 25940.9 | ETA 10:06:35
Time 00:36:00 | Step 56126140 / 1000000001 | TPS 25813.8 | ETA 10:09:24
Time 00:36:10 | Step 56384918 / 1000000001 | TPS 25877.7 | ETA 10:07:44
Time 00:36:20 | Step 56639692 / 1000000001 | TPS 25477.3 | ETA 10:17:07
Time 00:36:30 | Step 56898511 / 1000000001 | TPS 25881.8 | ETA 10:07:18
Time 00:36:40 | Step 57158523 / 1000000001 | TPS 26001.2 | ETA 10:04:21
Time 00:36:50 | Step 57418343 / 1000000001 | TPS 25981.9 | ETA 10:04:38
Time 00:37:00 | Step 57678574 / 1000000001 | TPS 26023.1 | ETA 10:03:30
Time 00:37:10 | Step 57938819 / 1000000001 | TPS 26024.4 | ETA 10:03:19
Time 00:37:20 | Step 58198586 / 1000000001 | TPS 25976.7 | ETA 10:04:15
Time 00:37:30 | Step 58458941 / 1000000001 | TPS 26035.5 | ETA 10:02:43
Time 00:37:40 | Step 58718856 / 1000000001 | TPS 25991.4 | ETA 10:03:35
Time 00:37:50 | Step 58979575 / 1000000001 | TPS 26071.9 | ETA 10:01:33
Time 00:38:00 | Step 59239895 / 1000000001 | TPS 26031.9 | ETA 10:02:18
Time 00:38:10 | Step 59500381 / 1000000001 | TPS 26048.6 | ETA 10:01:45
Time 00:38:20 | Step 59759739 / 1000000001 | TPS 25935.8 | ETA 10:04:12
Time 00:38:30 | Step 60019663 / 1000000001 | TPS 25992.4 | ETA 10:02:43
Time 00:38:40 | Step 60279991 / 1000000001 | TPS 26032.7 | ETA 10:01:37
Time 00:38:50 | Step 60539009 / 1000000001 | TPS 25901.8 | ETA 10:04:30
Time 00:39:00 | Step 60798980 / 1000000001 | TPS 25997.1 | ETA 10:02:07
Time 00:39:10 | Step 61058980 / 1000000001 | TPS 26000 | ETA 10:01:53
Time 00:39:20 | Step 61318674 / 1000000001 | TPS 25969.4 | ETA 10:02:25
Time 00:39:30 | Step 61578195 / 1000000001 | TPS 25951.9 | ETA 10:02:40
Time 00:39:40 | Step 61838401 / 1000000001 | TPS 26020.1 | ETA 10:00:55
Time 00:39:50 | Step 62096990 / 1000000001 | TPS 25858.9 | ETA 10:04:30
Time 00:40:00 | Step 62357497 / 1000000001 | TPS 26050.6 | ETA 09:59:53
Time 00:40:10 | Step 62617624 / 1000000001 | TPS 26012.7 | ETA 10:00:35
Time 00:40:20 | Step 62877748 / 1000000001 | TPS 26012.4 | ETA 10:00:26
Time 00:40:30 | Step 63137983 / 1000000001 | TPS 26023.4 | ETA 10:00:00
Time 00:40:40 | Step 63396411 / 1000000001 | TPS 25842.7 | ETA 10:04:02
Time 00:40:50 | Step 63655306 / 1000000001 | TPS 25889.4 | ETA 10:02:47
Time 00:41:00 | Step 63913819 / 1000000001 | TPS 25851.2 | ETA 10:03:30
Time 00:41:10 | Step 64173922 / 1000000001 | TPS 26010.3 | ETA 09:59:39
Time 00:41:20 | Step 64434248 / 1000000001 | TPS 26032.5 | ETA 09:58:58
Time 00:41:30 | Step 64694866 / 1000000001 | TPS 26061.7 | ETA 09:58:08
Time 00:41:40 | Step 64954974 / 1000000001 | TPS 26010.8 | ETA 09:59:08
Time 00:41:50 | Step 65215694 / 1000000001 | TPS 26071.9 | ETA 09:57:34
Time 00:42:00 | Step 65475779 / 1000000001 | TPS 26008.4 | ETA 09:58:51
Time 00:42:10 | Step 65735668 / 1000000001 | TPS 25988.9 | ETA 09:59:08
Time 00:42:20 | Step 65995657 / 1000000001 | TPS 25998.8 | ETA 09:58:44
Time 00:42:30 | Step 66255512 / 1000000001 | TPS 25985.5 | ETA 09:58:53
Time 00:42:40 | Step 66515221 / 1000000001 | TPS 25970.8 | ETA 09:59:03
Time 00:42:50 | Step 66775200 / 1000000001 | TPS 25997.9 | ETA 09:58:16
Time 00:43:00 | Step 67034747 / 1000000001 | TPS 25954.7 | ETA 09:59:05
Time 00:43:10 | Step 67293932 / 1000000001 | TPS 25918.5 | ETA 09:59:46
Time 00:43:20 | Step 67553638 / 1000000001 | TPS 25970.6 | ETA 09:58:23
Time 00:43:30 | Step 67813814 / 1000000001 | TPS 26017.5 | ETA 09:57:09
Time 00:43:40 | Step 68074052 / 1000000001 | TPS 26023.7 | ETA 09:56:50
Time 00:43:50 | Step 68334001 / 1000000001 | TPS 25994.5 | ETA 09:57:20
Time 00:44:00 | Step 68591687 / 1000000001 | TPS 25768.6 | ETA 10:02:25
Time 00:44:10 | Step 68848640 / 1000000001 | TPS 25695.2 | ETA 10:03:58
Time 00:44:20 | Step 69107022 / 1000000001 | TPS 25838.1 | ETA 10:00:27
Time 00:44:30 | Step 69365835 / 1000000001 | TPS 25881.3 | ETA 09:59:17
Time 00:44:40 | Step 69625040 / 1000000001 | TPS 25920.5 | ETA 09:58:13
Time 00:44:50 | Step 69883505 / 1000000001 | TPS 25846.4 | ETA 09:59:46
Time 00:45:00 | Step 70142673 / 1000000001 | TPS 25916.8 | ETA 09:57:58
Time 00:45:10 | Step 70401722 / 1000000001 | TPS 25904.9 | ETA 09:58:05
Time 00:45:20 | Step 70660889 / 1000000001 | TPS 25916.7 | ETA 09:57:38
Time 00:45:30 | Step 70920675 / 1000000001 | TPS 25978.6 | ETA 09:56:03
Time 00:45:40 | Step 71180691 / 1000000001 | TPS 26001.5 | ETA 09:55:21
Time 00:45:50 | Step 71438985 / 1000000001 | TPS 25829.4 | ETA 09:59:09
Time 00:46:00 | Step 71695892 / 1000000001 | TPS 25690.6 | ETA 10:02:13
Time 00:46:10 | Step 71955685 / 1000000001 | TPS 25979.2 | ETA 09:55:22
Time 00:46:20 | Step 72215565 / 1000000001 | TPS 25988 | ETA 09:55:00
Time 00:46:30 | Step 72475696 / 1000000001 | TPS 26013.1 | ETA 09:54:16
Time 00:46:40 | Step 72734197 / 1000000001 | TPS 25850.1 | ETA 09:57:50
Time 00:46:50 | Step 72993581 / 1000000001 | TPS 25938.4 | ETA 09:55:38
Time 00:47:00 | Step 73252707 / 1000000001 | TPS 25912.6 | ETA 09:56:04
Time 00:47:10 | Step 73512711 / 1000000001 | TPS 26000.2 | ETA 09:53:53
Time 00:47:20 | Step 73772275 / 1000000001 | TPS 25956.3 | ETA 09:54:44
Time 00:47:30 | Step 74026197 / 1000000001 | TPS 25392.1 | ETA 10:07:46
Time 00:47:40 | Step 74286229 / 1000000001 | TPS 26003.1 | ETA 09:53:20
Time 00:47:50 | Step 74545819 / 1000000001 | TPS 25959 | ETA 09:54:10
Time 00:48:00 | Step 74805229 / 1000000001 | TPS 25941 | ETA 09:54:25
Time 00:48:10 | Step 75063557 / 1000000001 | TPS 25832.8 | ETA 09:56:44
Time 00:48:20 | Step 75321904 / 1000000001 | TPS 25834.6 | ETA 09:56:32
Time 00:48:30 | Step 75580789 / 1000000001 | TPS 25888.5 | ETA 09:55:07
Time 00:48:40 | Step 75839529 / 1000000001 | TPS 25873.9 | ETA 09:55:17
Time 00:48:50 | Step 76094046 / 1000000001 | TPS 25451.7 | ETA 10:05:00
Time 00:49:00 | Step 76347254 / 1000000001 | TPS 25320.7 | ETA 10:07:58
Time 00:49:10 | Step 76600932 / 1000000001 | TPS 25367.8 | ETA 10:06:40
Time 00:49:20 | Step 76856854 / 1000000001 | TPS 25592.1 | ETA 10:01:11
Time 00:49:30 | Step 77090967 / 1000000001 | TPS 23411.2 | ETA 10:57:01
Time 00:49:40 | Step 77345105 / 1000000001 | TPS 25413.8 | ETA 10:05:05
Time 00:49:50 | Step 77596872 / 1000000001 | TPS 25176.7 | ETA 10:10:37
Time 00:50:00 | Step 77848249 / 1000000001 | TPS 25137.5 | ETA 10:11:24
Time 00:50:10 | Step 78102148 / 1000000001 | TPS 25389.8 | ETA 10:05:09
Time 00:50:20 | Step 78346513 / 1000000001 | TPS 24436.4 | ETA 10:28:36
Time 00:50:30 | Step 78588207 / 1000000001 | TPS 24169.3 | ETA 10:35:23
Time 00:50:40 | Step 78844460 / 1000000001 | TPS 25625.2 | ETA 09:59:07
Time 00:50:50 | Step 79103183 / 1000000001 | TPS 25872.2 | ETA 09:53:14
Time 00:51:00 | Step 79361861 / 1000000001 | TPS 25867.7 | ETA 09:53:10
Time 00:51:10 | Step 79621131 / 1000000001 | TPS 25927 | ETA 09:51:38
Time 00:51:20 | Step 79881091 / 1000000001 | TPS 25995.8 | ETA 09:49:54
Time 00:51:30 | Step 80140770 / 1000000001 | TPS 25967.9 | ETA 09:50:22
Time 00:51:40 | Step 80400030 / 1000000001 | TPS 25925.9 | ETA 09:51:10
Time 00:51:50 | Step 80657472 / 1000000001 | TPS 25744.2 | ETA 09:55:10
Time 00:52:00 | Step 80915946 / 1000000001 | TPS 25847.4 | ETA 09:52:38
Time 00:52:10 | Step 81173823 / 1000000001 | TPS 25787.7 | ETA 09:53:50
Time 00:52:20 | Step 81425702 / 1000000001 | TPS 25187.9 | ETA 10:07:48
Time 00:52:30 | Step 81677930 / 1000000001 | TPS 25222.7 | ETA 10:06:48
Time 00:52:40 | Step 81936263 / 1000000001 | TPS 25833.3 | ETA 09:52:18
Time 00:52:50 | Step 82195909 / 1000000001 | TPS 25964.5 | ETA 09:49:08
Time 00:53:00 | Step 82452985 / 1000000001 | TPS 25707.6 | ETA 09:54:51
Time 00:53:10 | Step 82703594 / 1000000001 | TPS 25060.9 | ETA 10:10:02
Time 00:53:20 | Step 82962957 / 1000000001 | TPS 25936.3 | ETA 09:49:17
Time 00:53:30 | Step 83222875 / 1000000001 | TPS 25991.7 | ETA 09:47:51
Time 00:53:40 | Step 83482987 / 1000000001 | TPS 26011.1 | ETA 09:47:15
Time 00:53:50 | Step 83732793 / 1000000001 | TPS 24980.6 | ETA 10:11:19
Time 00:54:00 | Step 83972841 / 1000000001 | TPS 24004.8 | ETA 10:36:00
Time 00:54:10 | Step 84227707 / 1000000001 | TPS 25486.6 | ETA 09:58:51
Time 00:54:20 | Step 84474368 / 1000000001 | TPS 24665.9 | ETA 10:18:37
Time 00:54:30 | Step 84704958 / 1000000001 | TPS 23058.9 | ETA 11:01:33
Time 00:54:40 | Step 84948152 / 1000000001 | TPS 24319.3 | ETA 10:27:06
Time 00:54:50 | Step 85175740 / 1000000001 | TPS 22758.8 | ETA 11:09:56
Time 00:55:00 | Step 85396163 / 1000000001 | TPS 22042.3 | ETA 11:31:33
Time 00:55:10 | Step 85648698 / 1000000001 | TPS 25253.4 | ETA 10:03:27
Time 00:55:20 | Step 85902030 / 1000000001 | TPS 25333.2 | ETA 10:01:23
Time 00:55:30 | Step 86159904 / 1000000001 | TPS 25787.3 | ETA 09:50:37
Time 00:55:40 | Step 86416292 / 1000000001 | TPS 25638.6 | ETA 09:53:53
Time 00:55:50 | Step 86671406 / 1000000001 | TPS 25511.3 | ETA 09:56:40
Time 00:56:00 | Step 86926998 / 1000000001 | TPS 25559.2 | ETA 09:55:23
Time 00:56:10 | Step 87182915 / 1000000001 | TPS 25591.7 | ETA 09:54:28
Time 00:56:20 | Step 87441314 / 1000000001 | TPS 25839.9 | ETA 09:48:35
Time 00:56:30 | Step 87700304 / 1000000001 | TPS 25898.9 | ETA 09:47:05
Time 00:56:40 | Step 87959619 / 1000000001 | TPS 25931.4 | ETA 09:46:11
Time 00:56:50 | Step 88217152 / 1000000001 | TPS 25753.2 | ETA 09:50:04
Time 00:57:00 | Step 88470524 / 1000000001 | TPS 25337.2 | ETA 09:59:35
Time 00:57:10 | Step 88721256 / 1000000001 | TPS 25073.2 | ETA 10:05:44
Time 00:57:20 | Step 88978698 / 1000000001 | TPS 25744.2 | ETA 09:49:47
Time 00:57:30 | Step 89231217 / 1000000001 | TPS 25251.9 | ETA 10:01:07
Time 00:57:40 | Step 89489845 / 1000000001 | TPS 25862.7 | ETA 09:46:45
Time 00:57:50 | Step 89748663 / 1000000001 | TPS 25881.8 | ETA 09:46:09
Time 00:58:00 | Step 90007397 / 1000000001 | TPS 25873.2 | ETA 09:46:11
Time 00:58:10 | Step 90266522 / 1000000001 | TPS 25912.4 | ETA 09:45:08
Time 00:58:20 | Step 90525791 / 1000000001 | TPS 25926.8 | ETA 09:44:38
Time 00:58:30 | Step 90783942 / 1000000001 | TPS 25815.1 | ETA 09:47:00
Time 00:58:40 | Step 91043658 / 1000000001 | TPS 25971.4 | ETA 09:43:18
Time 00:58:50 | Step 91302301 / 1000000001 | TPS 25864 | ETA 09:45:33
Time 00:59:00 | Step 91562332 / 1000000001 | TPS 26003.1 | ETA 09:42:15
Time 00:59:10 | Step 91822102 / 1000000001 | TPS 25976.9 | ETA 09:42:40
Time 00:59:20 | Step 92081435 / 1000000001 | TPS 25933.2 | ETA 09:43:29
Time 00:59:30 | Step 92340542 / 1000000001 | TPS 25910.6 | ETA 09:43:50
Time 00:59:40 | Step 92600424 / 1000000001 | TPS 25988.2 | ETA 09:41:55
Time 00:59:50 | Step 92859611 / 1000000001 | TPS 25918.6 | ETA 09:43:19
Time 01:00:00 | Step 93118553 / 1000000001 | TPS 25894.2 | ETA 09:43:42
Time 01:00:10 | Step 93377294 / 1000000001 | TPS 25874.1 | ETA 09:43:59
Time 01:00:20 | Step 93636307 / 1000000001 | TPS 25901.2 | ETA 09:43:13
Time 01:00:30 | Step 93895106 / 1000000001 | TPS 25879.9 | ETA 09:43:31
Time 01:00:40 | Step 94154417 / 1000000001 | TPS 25931.1 | ETA 09:42:12
Time 01:00:50 | Step 94414219 / 1000000001 | TPS 25980.1 | ETA 09:40:56
Time 01:01:00 | Step 94670779 / 1000000001 | TPS 25655.9 | ETA 09:48:07
Time 01:01:10 | Step 94927995 / 1000000001 | TPS 25721.5 | ETA 09:46:27
Time 01:01:20 | Step 95186176 / 1000000001 | TPS 25818.1 | ETA 09:44:05
Time 01:01:30 | Step 95441751 / 1000000001 | TPS 25557.5 | ETA 09:49:53
Time 01:01:40 | Step 95698381 / 1000000001 | TPS 25662.8 | ETA 09:47:17
Time 01:01:50 | Step 95940439 / 1000000001 | TPS 24205.8 | ETA 10:22:28
Time 01:02:00 | Step 96200430 / 1000000001 | TPS 25999.1 | ETA 09:39:22
Time 01:02:10 | Step 96457441 / 1000000001 | TPS 25701.1 | ETA 09:45:55
Time 01:02:20 | Step 96715527 / 1000000001 | TPS 25808.5 | ETA 09:43:19
Time 01:02:30 | Step 96973361 / 1000000001 | TPS 25783.4 | ETA 09:43:43
Time 01:02:40 | Step 97232039 / 1000000001 | TPS 25867.8 | ETA 09:41:39
Time 01:02:50 | Step 97490696 / 1000000001 | TPS 25865.7 | ETA 09:41:32
Time 01:03:00 | Step 97748414 / 1000000001 | TPS 25771.6 | ETA 09:43:29
Time 01:03:10 | Step 98007298 / 1000000001 | TPS 25888.4 | ETA 09:40:41
Time 01:03:20 | Step 98267029 / 1000000001 | TPS 25973 | ETA 09:38:38
Time 01:03:30 | Step 98525659 / 1000000001 | TPS 25862.9 | ETA 09:40:55
Time 01:03:40 | Step 98782944 / 1000000001 | TPS 25728.3 | ETA 09:43:48
Time 01:03:50 | Step 99041503 / 1000000001 | TPS 25855.8 | ETA 09:40:45
Time 01:04:00 | Step 99299852 / 1000000001 | TPS 25834.8 | ETA 09:41:03
Time 01:04:10 | Step 99558523 / 1000000001 | TPS 25867.1 | ETA 09:40:10
Time 01:04:20 | Step 99816511 / 1000000001 | TPS 25798.8 | ETA 09:41:32
Time 01:04:30 | Step 100075573 / 1000000001 | TPS 25906.1 | ETA 09:38:57
Time 01:04:40 | Step 100334903 / 1000000001 | TPS 25933 | ETA 09:38:11
Time 01:04:50 | Step 100594776 / 1000000001 | TPS 25987.2 | ETA 09:36:49
Time 01:05:00 | Step 100853460 / 1000000001 | TPS 25868.3 | ETA 09:39:18
Time 01:05:10 | Step 101111996 / 1000000001 | TPS 25853.6 | ETA 09:39:28
Time 01:05:20 | Step 101370645 / 1000000001 | TPS 25864.8 | ETA 09:39:03
Time 01:05:30 | Step 101629192 / 1000000001 | TPS 25854.7 | ETA 09:39:06
Time 01:05:40 | Step 101887385 / 1000000001 | TPS 25819.3 | ETA 09:39:44
Time 01:05:50 | Step 102145940 / 1000000001 | TPS 25855.5 | ETA 09:38:45
Time 01:06:00 | Step 102405975 / 1000000001 | TPS 26003.5 | ETA 09:35:18
Time 01:06:10 | Step 102660286 / 1000000001 | TPS 25431 | ETA 09:48:05
Time 01:06:20 | Step 102914861 / 1000000001 | TPS 25457.4 | ETA 09:47:18
Time 01:06:30 | Step 103171055 / 1000000001 | TPS 25619.3 | ETA 09:43:25
Time 01:06:40 | Step 103427859 / 1000000001 | TPS 25680.3 | ETA 09:41:52
Time 01:06:50 | Step 103686890 / 1000000001 | TPS 25903 | ETA 09:36:42
Time 01:07:00 | Step 103946121 / 1000000001 | TPS 25923.1 | ETA 09:36:05
Time 01:07:10 | Step 104204129 / 1000000001 | TPS 25800.7 | ETA 09:38:39
Time 01:07:20 | Step 104461313 / 1000000001 | TPS 25718.3 | ETA 09:40:21
Time 01:07:30 | Step 104720068 / 1000000001 | TPS 25875.5 | ETA 09:36:39
Time 01:07:40 | Step 104980248 / 1000000001 | TPS 26018 | ETA 09:33:20
Time 01:07:50 | Step 105239453 / 1000000001 | TPS 25920.5 | ETA 09:35:19
Time 01:08:00 | Step 105498747 / 1000000001 | TPS 25929.3 | ETA 09:34:57
Time 01:08:10 | Step 105757915 / 1000000001 | TPS 25916.8 | ETA 09:35:04
Time 01:08:20 | Step 106016401 / 1000000001 | TPS 25848.6 | ETA 09:36:25
Time 01:08:30 | Step 106275803 / 1000000001 | TPS 25940.1 | ETA 09:34:13
Time 01:08:40 | Step 106535969 / 1000000001 | TPS 26016.5 | ETA 09:32:22
Time 01:08:50 | Step 106795809 / 1000000001 | TPS 25984 | ETA 09:32:55
Time 01:09:00 | Step 107055493 / 1000000001 | TPS 25968.3 | ETA 09:33:05
Time 01:09:10 | Step 107315096 / 1000000001 | TPS 25960.3 | ETA 09:33:06
Time 01:09:20 | Step 107572919 / 1000000001 | TPS 25782.2 | ETA 09:36:54
Time 01:09:30 | Step 107829905 / 1000000001 | TPS 25698.6 | ETA 09:38:36
Time 01:09:40 | Step 108087084 / 1000000001 | TPS 25717.8 | ETA 09:38:00
Time 01:09:50 | Step 108342690 / 1000000001 | TPS 25560.5 | ETA 09:41:24
Time 01:10:00 | Step 108596605 / 1000000001 | TPS 25391.5 | ETA 09:45:06
Time 01:10:10 | Step 108852320 / 1000000001 | TPS 25571.5 | ETA 09:40:49
Time 01:10:20 | Step 109107445 / 1000000001 | TPS 25512.4 | ETA 09:41:59
Time 01:10:30 | Step 109363509 / 1000000001 | TPS 25606.3 | ETA 09:39:41
Time 01:10:40 | Step 109617758 / 1000000001 | TPS 25424.8 | ETA 09:43:40
Time 01:10:50 | Step 109872796 / 1000000001 | TPS 25503.7 | ETA 09:41:41
Time 01:11:00 | Step 110129238 / 1000000001 | TPS 25644.2 | ETA 09:38:20
Time 01:11:10 | Step 110382359 / 1000000001 | TPS 25312.1 | ETA 09:45:45
Time 01:11:20 | Step 110633304 / 1000000001 | TPS 25094.5 | ETA 09:50:40
Time 01:11:30 | Step 110882269 / 1000000001 | TPS 24896.3 | ETA 09:55:12
Time 01:11:40 | Step 111139620 / 1000000001 | TPS 25735 | ETA 09:35:38
Time 01:11:50 | Step 111396101 / 1000000001 | TPS 25648.1 | ETA 09:37:25
Time 01:12:00 | Step 111648321 / 1000000001 | TPS 25222 | ETA 09:47:01
Time 01:12:10 | Step 111902230 / 1000000001 | TPS 25390.8 | ETA 09:42:57
Time 01:12:20 | Step 112155345 / 1000000001 | TPS 25311.4 | ETA 09:44:36
Time 01:12:30 | Step 112408751 / 1000000001 | TPS 25340.5 | ETA 09:43:46
Time 01:12:40 | Step 112666943 / 1000000001 | TPS 25819.2 | ETA 09:32:47
Time 01:12:50 | Step 112921411 / 1000000001 | TPS 25446.7 | ETA 09:41:00
Time 01:13:00 | Step 113173368 / 1000000001 | TPS 25195.7 | ETA 09:46:37
Time 01:13:10 | Step 113430589 / 1000000001 | TPS 25722 | ETA 09:34:27
Time 01:13:20 | Step 113687695 / 1000000001 | TPS 25710.6 | ETA 09:34:32
Time 01:13:30 | Step 113943717 / 1000000001 | TPS 25602.2 | ETA 09:36:48
Time 01:13:40 | Step 114202027 / 1000000001 | TPS 25831 | ETA 09:31:32
Time 01:13:50 | Step 114459136 / 1000000001 | TPS 25710.8 | ETA 09:34:02
Time 01:14:00 | Step 114711693 / 1000000001 | TPS 25255.7 | ETA 09:44:13
Time 01:14:10 | Step 114963051 / 1000000001 | TPS 25135.7 | ETA 09:46:50
Time 01:14:20 | Step 115212121 / 1000000001 | TPS 24906.9 | ETA 09:52:03
Time 01:14:30 | Step 115462897 / 1000000001 | TPS 25077.5 | ETA 09:47:52
Time 01:14:40 | Step 115714639 / 1000000001 | TPS 25174.2 | ETA 09:45:26
Time 01:14:50 | Step 115967073 / 1000000001 | TPS 25243.4 | ETA 09:43:40
Time 01:15:00 | Step 116221561 / 1000000001 | TPS 25448.8 | ETA 09:38:47
Time 01:15:10 | Step 116474841 / 1000000001 | TPS 25328 | ETA 09:41:23
Time 01:15:20 | Step 116724893 / 1000000001 | TPS 25005.2 | ETA 09:48:43
Time 01:15:30 | Step 116973418 / 1000000001 | TPS 24852.4 | ETA 09:52:10
Time 01:15:40 | Step 117221406 / 1000000001 | TPS 24798.8 | ETA 09:53:17
Time 01:15:50 | Step 117477950 / 1000000001 | TPS 25654.4 | ETA 09:33:20
Time 01:16:00 | Step 117732928 / 1000000001 | TPS 25497.7 | ETA 09:36:41
Time 01:16:10 | Step 117963205 / 1000000001 | TPS 23027.6 | ETA 10:38:23
Time 01:16:20 | Step 118212219 / 1000000001 | TPS 24901.2 | ETA 09:50:11
Time 01:16:30 | Step 118469455 / 1000000001 | TPS 25723.5 | ETA 09:31:09
Time 01:16:40 | Step 118727002 / 1000000001 | TPS 25754.6 | ETA 09:30:18
Time 01:16:50 | Step 118983611 / 1000000001 | TPS 25660.9 | ETA 09:32:13
Time 01:17:00 | Step 119237678 / 1000000001 | TPS 25406.6 | ETA 09:37:46
Time 01:17:10 | Step 119492505 / 1000000001 | TPS 25482.7 | ETA 09:35:53
Time 01:17:20 | Step 119729648 / 1000000001 | TPS 23714.3 | ETA 10:18:39
Time 01:17:30 | Step 119965677 / 1000000001 | TPS 23602.9 | ETA 10:21:25
Time 01:17:40 | Step 120221477 / 1000000001 | TPS 25579.9 | ETA 09:33:13
Time 01:17:50 | Step 120477918 / 1000000001 | TPS 25644.1 | ETA 09:31:37
Time 01:18:00 | Step 120735435 / 1000000001 | TPS 25751.6 | ETA 09:29:04
Time 01:18:10 | Step 120992021 / 1000000001 | TPS 25658.5 | ETA 09:30:57
Time 01:18:20 | Step 121248698 / 1000000001 | TPS 25667.6 | ETA 09:30:35
Time 01:18:30 | Step 121501226 / 1000000001 | TPS 25252.7 | ETA 09:39:48
Time 01:18:40 | Step 121755542 / 1000000001 | TPS 25431.5 | ETA 09:35:33
Time 01:18:50 | Step 122009380 / 1000000001 | TPS 25383.7 | ETA 09:36:28
Time 01:19:00 | Step 122263357 / 1000000001 | TPS 25397.6 | ETA 09:35:59
Time 01:19:10 | Step 122510837 / 1000000001 | TPS 24748 | ETA 09:50:56
Time 01:19:20 | Step 122751176 / 1000000001 | TPS 24033.8 | ETA 10:08:20
Time 01:19:30 | Step 123003445 / 1000000001 | TPS 25226.9 | ETA 09:39:24
Time 01:19:40 | Step 123257224 / 1000000001 | TPS 25377.9 | ETA 09:35:47
Time 01:19:50 | Step 123512369 / 1000000001 | TPS 25514.4 | ETA 09:32:32
Time 01:20:00 | Step 123763458 / 1000000001 | TPS 25108.9 | ETA 09:41:37
Time 01:20:10 | Step 124013333 / 1000000001 | TPS 24987.5 | ETA 09:44:17
Time 01:20:20 | Step 124259124 / 1000000001 | TPS 24579.1 | ETA 09:53:49
Time 01:20:30 | Step 124505880 / 1000000001 | TPS 24675.6 | ETA 09:51:20
Time 01:20:40 | Step 124761852 / 1000000001 | TPS 25597.1 | ETA 09:29:52
Time 01:20:50 | Step 125013164 / 1000000001 | TPS 25131.2 | ETA 09:40:16
Time 01:21:00 | Step 125260206 / 1000000001 | TPS 24704.2 | ETA 09:50:08
Time 01:21:10 | Step 125508361 / 1000000001 | TPS 24815.3 | ETA 09:47:19
Time 01:21:20 | Step 125752403 / 1000000001 | TPS 24404.2 | ETA 09:57:03
Time 01:21:30 | Step 125993703 / 1000000001 | TPS 24129.9 | ETA 10:03:40
Time 01:21:40 | Step 126239019 / 1000000001 | TPS 24531.5 | ETA 09:53:37
Time 01:21:50 | Step 126491772 / 1000000001 | TPS 25275.2 | ETA 09:35:59
Time 01:22:00 | Step 126748408 / 1000000001 | TPS 25663.5 | ETA 09:27:06
Time 01:22:10 | Step 127004504 / 1000000001 | TPS 25609.6 | ETA 09:28:08
Time 01:22:20 | Step 127256014 / 1000000001 | TPS 25150.9 | ETA 09:38:20
Time 01:22:30 | Step 127509802 / 1000000001 | TPS 25378.7 | ETA 09:32:58
Time 01:22:40 | Step 127763628 / 1000000001 | TPS 25382.5 | ETA 09:32:43
Time 01:22:50 | Step 128016883 / 1000000001 | TPS 25325.4 | ETA 09:33:51
Time 01:23:00 | Step 128271033 / 1000000001 | TPS 25414.9 | ETA 09:31:39
Time 01:23:10 | Step 128517916 / 1000000001 | TPS 24688.3 | ETA 09:48:19
Time 01:23:20 | Step 128751433 / 1000000001 | TPS 23351.6 | ETA 10:21:50
Time 01:23:30 | Step 128999471 / 1000000001 | TPS 24803.8 | ETA 09:45:15
Time 01:23:40 | Step 129248977 / 1000000001 | TPS 24950.5 | ETA 09:41:39
Time 01:23:50 | Step 129491183 / 1000000001 | TPS 24220.5 | ETA 09:59:00
Time 01:24:00 | Step 129744282 / 1000000001 | TPS 25309.7 | ETA 09:33:04
Time 01:24:10 | Step 129995914 / 1000000001 | TPS 25163.1 | ETA 09:36:14
Time 01:24:20 | Step 130240142 / 1000000001 | TPS 24422.8 | ETA 09:53:32
Time 01:24:30 | Step 130485844 / 1000000001 | TPS 24570.1 | ETA 09:49:49
Time 01:24:40 | Step 130737324 / 1000000001 | TPS 25148 | ETA 09:36:05
Time 01:24:50 | Step 130984157 / 1000000001 | TPS 24683.2 | ETA 09:46:46
Time 01:25:00 | Step 131230710 / 1000000001 | TPS 24655.2 | ETA 09:47:16
Time 01:25:10 | Step 131482850 / 1000000001 | TPS 25214 | ETA 09:34:05
Time 01:25:20 | Step 131739325 / 1000000001 | TPS 25647.4 | ETA 09:24:13
Time 01:25:30 | Step 131995896 / 1000000001 | TPS 25657.1 | ETA 09:23:51
Time 01:25:40 | Step 132250366 / 1000000001 | TPS 25446.9 | ETA 09:28:20
Time 01:25:50 | Step 132502548 / 1000000001 | TPS 25218.2 | ETA 09:33:19
Time 01:26:00 | Step 132747444 / 1000000001 | TPS 24489.5 | ETA 09:50:13
Time 01:26:10 | Step 133003633 / 1000000001 | TPS 25618.8 | ETA 09:24:02
Time 01:26:20 | Step 133253401 / 1000000001 | TPS 24976.5 | ETA 09:38:22
Time 01:26:30 | Step 133499200 / 1000000001 | TPS 24579.9 | ETA 09:47:32
Time 01:26:40 | Step 133751109 / 1000000001 | TPS 25190.8 | ETA 09:33:07
Time 01:26:50 | Step 134008720 / 1000000001 | TPS 25761 | ETA 09:20:16
Time 01:27:00 | Step 134264199 / 1000000001 | TPS 25547.9 | ETA 09:24:46
Time 01:27:10 | Step 134516943 / 1000000001 | TPS 25274.1 | ETA 09:30:43
Time 01:27:20 | Step 134771890 / 1000000001 | TPS 25494.6 | ETA 09:25:37
Time 01:27:30 | Step 135024162 / 1000000001 | TPS 25227.1 | ETA 09:31:27
Time 01:27:40 | Step 135276405 / 1000000001 | TPS 25224.3 | ETA 09:31:21
Time 01:27:50 | Step 135526723 / 1000000001 | TPS 25031.7 | ETA 09:35:35
Time 01:28:00 | Step 135775647 / 1000000001 | TPS 24892.3 | ETA 09:38:38
Time 01:28:10 | Step 136032027 / 1000000001 | TPS 25638 | ETA 09:21:38
Time 01:28:20 | Step 136284860 / 1000000001 | TPS 25283.2 | ETA 09:29:21
Time 01:28:30 | Step 136538338 / 1000000001 | TPS 25347.7 | ETA 09:27:44
Time 01:28:40 | Step 136795305 / 1000000001 | TPS 25696.7 | ETA 09:19:52
Time 01:28:50 | Step 137050872 / 1000000001 | TPS 25556.6 | ETA 09:22:46
Time 01:29:00 | Step 137303619 / 1000000001 | TPS 25274.7 | ETA 09:28:52
Time 01:29:10 | Step 137559278 / 1000000001 | TPS 25565.9 | ETA 09:22:14
Time 01:29:20 | Step 137810457 / 1000000001 | TPS 25117.8 | ETA 09:32:05
Time 01:29:30 | Step 138060347 / 1000000001 | TPS 24988.9 | ETA 09:34:52
Time 01:29:40 | Step 138305746 / 1000000001 | TPS 24539.9 | ETA 09:45:14
Time 01:29:50 | Step 138543646 / 1000000001 | TPS 23790 | ETA 10:03:30
Time 01:30:00 | Step 138796569 / 1000000001 | TPS 25292.3 | ETA 09:27:30
Time 01:30:10 | Step 139048742 / 1000000001 | TPS 25217.3 | ETA 09:29:01
Time 01:30:20 | Step 139305743 / 1000000001 | TPS 25700.1 | ETA 09:18:09
Time 01:30:30 | Step 139561229 / 1000000001 | TPS 25548.4 | ETA 09:21:18
Time 01:30:40 | Step 139808032 / 1000000001 | TPS 24680.2 | ETA 09:40:53
Time 01:30:50 | Step 140061671 / 1000000001 | TPS 25363.8 | ETA 09:25:04
Time 01:31:00 | Step 140313103 / 1000000001 | TPS 25143.1 | ETA 09:29:51
Time 01:31:10 | Step 140553985 / 1000000001 | TPS 24088 | ETA 09:54:39
Time 01:31:20 | Step 140800181 / 1000000001 | TPS 24619.6 | ETA 09:41:39
Time 01:31:30 | Step 141048000 / 1000000001 | TPS 24781.9 | ETA 09:37:40
Time 01:31:40 | Step 141303396 / 1000000001 | TPS 25539.5 | ETA 09:20:22
Time 01:31:50 | Step 141559181 / 1000000001 | TPS 25578.5 | ETA 09:19:21
Time 01:32:00 | Step 141816318 / 1000000001 | TPS 25713.7 | ETA 09:16:14
Time 01:32:10 | Step 142071386 / 1000000001 | TPS 25506.8 | ETA 09:20:35
Time 01:32:20 | Step 142325476 / 1000000001 | TPS 25409 | ETA 09:22:34
Time 01:32:30 | Step 142578936 / 1000000001 | TPS 25345.9 | ETA 09:23:48
Time 01:32:40 | Step 142834666 / 1000000001 | TPS 25572.9 | ETA 09:18:38
Time 01:32:50 | Step 143089475 / 1000000001 | TPS 25480.8 | ETA 09:20:29
Time 01:33:00 | Step 143344860 / 1000000001 | TPS 25538.5 | ETA 09:19:03
Time 01:33:10 | Step 143600337 / 1000000001 | TPS 25547.7 | ETA 09:18:41
Time 01:33:20 | Step 143853738 / 1000000001 | TPS 25340.1 | ETA 09:23:06
Time 01:33:30 | Step 144104900 / 1000000001 | TPS 25116.1 | ETA 09:27:57
Time 01:33:40 | Step 144351309 / 1000000001 | TPS 24640.9 | ETA 09:38:44
Time 01:33:50 | Step 144581762 / 1000000001 | TPS 23045.2 | ETA 10:18:39
Time 01:34:00 | Step 144823167 / 1000000001 | TPS 24140.4 | ETA 09:50:25
Time 01:34:10 | Step 145066953 / 1000000001 | TPS 24378.6 | ETA 09:44:29
Time 01:34:20 | Step 145313775 / 1000000001 | TPS 24682.2 | ETA 09:37:07
Time 01:34:30 | Step 145569451 / 1000000001 | TPS 25567.4 | ETA 09:16:58
Time 01:34:40 | Step 145822852 / 1000000001 | TPS 25340.1 | ETA 09:21:48
Time 01:34:50 | Step 146059724 / 1000000001 | TPS 23687.2 | ETA 10:00:50
Time 01:35:00 | Step 146314268 / 1000000001 | TPS 25454.3 | ETA 09:18:57
Time 01:35:10 | Step 146570628 / 1000000001 | TPS 25636 | ETA 09:14:50
Time 01:35:20 | Step 146829083 / 1000000001 | TPS 25845.4 | ETA 09:10:10
Time 01:35:30 | Step 147084975 / 1000000001 | TPS 25589.2 | ETA 09:15:31
Time 01:35:40 | Step 147337518 / 1000000001 | TPS 25254.2 | ETA 09:22:43
Time 01:35:50 | Step 147588752 / 1000000001 | TPS 25123.3 | ETA 09:25:29
Time 01:36:00 | Step 147832269 / 1000000001 | TPS 24351.7 | ETA 09:43:14
Time 01:36:10 | Step 148088188 / 1000000001 | TPS 25591.9 | ETA 09:14:48
Time 01:36:20 | Step 148344180 / 1000000001 | TPS 25599.1 | ETA 09:14:28
Time 01:36:30 | Step 148600487 / 1000000001 | TPS 25630.6 | ETA 09:13:38
Time 01:36:40 | Step 148841475 / 1000000001 | TPS 24098.7 | ETA 09:48:39
Time 01:36:50 | Step 149088135 / 1000000001 | TPS 24666 | ETA 09:34:57
Time 01:37:00 | Step 149326921 / 1000000001 | TPS 23878.6 | ETA 09:53:44
Time 01:37:10 | Step 149562144 / 1000000001 | TPS 23522.2 | ETA 10:02:34
Time 01:37:20 | Step 149793339 / 1000000001 | TPS 23119.4 | ETA 10:12:54
Time 01:37:30 | Step 150037127 / 1000000001 | TPS 24378.7 | ETA 09:41:04
Time 01:37:40 | Step 150282493 / 1000000001 | TPS 24536.6 | ETA 09:37:10
Time 01:37:50 | Step 150525260 / 1000000001 | TPS 24276.7 | ETA 09:43:11
Time 01:38:00 | Step 150771809 / 1000000001 | TPS 24654.8 | ETA 09:34:04
Time 01:38:10 | Step 151024094 / 1000000001 | TPS 25228.5 | ETA 09:20:51
Time 01:38:20 | Step 151265259 / 1000000001 | TPS 24116.4 | ETA 09:46:33
Time 01:38:30 | Step 151495068 / 1000000001 | TPS 22980.9 | ETA 10:15:22
Time 01:38:40 | Step 151728167 / 1000000001 | TPS 23309.8 | ETA 10:06:31
Time 01:38:50 | Step 151972514 / 1000000001 | TPS 24434.6 | ETA 09:38:25
Time 01:39:00 | Step 152213432 / 1000000001 | TPS 24091.8 | ETA 09:46:29
Time 01:39:10 | Step 152452321 / 1000000001 | TPS 23888.8 | ETA 09:51:18
Time 01:39:20 | Step 152706618 / 1000000001 | TPS 25429.7 | ETA 09:15:19
Time 01:39:30 | Step 152959333 / 1000000001 | TPS 25271.3 | ETA 09:18:37
Time 01:39:40 | Step 153209774 / 1000000001 | TPS 25044 | ETA 09:23:32
Time 01:39:50 | Step 153461715 / 1000000001 | TPS 25194.1 | ETA 09:20:00
Time 01:40:00 | Step 153714733 / 1000000001 | TPS 25301.7 | ETA 09:17:27
Time 01:40:10 | Step 153969798 / 1000000001 | TPS 25506.4 | ETA 09:12:49
Time 01:40:20 | Step 154228117 / 1000000001 | TPS 25831.7 | ETA 09:05:41
Time 01:40:30 | Step 154484081 / 1000000001 | TPS 25596.4 | ETA 09:10:32
Time 01:40:40 | Step 154740040 / 1000000001 | TPS 25595.8 | ETA 09:10:23
Time 01:40:50 | Step 154998094 / 1000000001 | TPS 25805.4 | ETA 09:05:45
Time 01:41:00 | Step 155256504 / 1000000001 | TPS 25840.9 | ETA 09:04:50
Time 01:41:10 | Step 155514427 / 1000000001 | TPS 25792.3 | ETA 09:05:41
Time 01:41:20 | Step 155771374 / 1000000001 | TPS 25694.7 | ETA 09:07:36
Time 01:41:30 | Step 156026562 / 1000000001 | TPS 25518.8 | ETA 09:11:12
Time 01:41:40 | Step 156281344 / 1000000001 | TPS 25478.1 | ETA 09:11:55
Time 01:41:50 | Step 156536819 / 1000000001 | TPS 25547.4 | ETA 09:10:15
Time 01:42:00 | Step 156794437 / 1000000001 | TPS 25761.8 | ETA 09:05:30
Time 01:42:10 | Step 157050209 / 1000000001 | TPS 25577.2 | ETA 09:09:17
Time 01:42:20 | Step 157304648 / 1000000001 | TPS 25443.8 | ETA 09:11:59
Time 01:42:30 | Step 157561604 / 1000000001 | TPS 25695.5 | ETA 09:06:25
Time 01:42:40 | Step 157819169 / 1000000001 | TPS 25756.4 | ETA 09:04:57
Time 01:42:50 | Step 158077376 / 1000000001 | TPS 25820.7 | ETA 09:03:26
Time 01:43:00 | Step 158332792 / 1000000001 | TPS 25541.6 | ETA 09:09:12
Time 01:43:10 | Step 158590357 / 1000000001 | TPS 25756.3 | ETA 09:04:28
Time 01:43:20 | Step 158847128 / 1000000001 | TPS 25677 | ETA 09:05:58
Time 01:43:30 | Step 159104497 / 1000000001 | TPS 25736.8 | ETA 09:04:32
Time 01:43:40 | Step 159359619 / 1000000001 | TPS 25512.1 | ETA 09:09:10
Time 01:43:50 | Step 159615805 / 1000000001 | TPS 25618.5 | ETA 09:06:43
Time 01:44:00 | Step 159872269 / 1000000001 | TPS 25646.2 | ETA 09:05:58
Time 01:44:10 | Step 160126996 / 1000000001 | TPS 25472.6 | ETA 09:09:31
Time 01:44:20 | Step 160380454 / 1000000001 | TPS 25345.7 | ETA 09:12:06
Time 01:44:30 | Step 160637504 / 1000000001 | TPS 25704.9 | ETA 09:04:13
Time 01:44:40 | Step 160894093 / 1000000001 | TPS 25658.9 | ETA 09:05:02
Time 01:44:50 | Step 161149777 / 1000000001 | TPS 25568.3 | ETA 09:06:48
Time 01:45:00 | Step 161404588 / 1000000001 | TPS 25481.1 | ETA 09:08:30
Time 01:45:10 | Step 161662499 / 1000000001 | TPS 25791 | ETA 09:01:45
Time 01:45:20 | Step 161919557 / 1000000001 | TPS 25705.8 | ETA 09:03:22
Time 01:45:30 | Step 162176479 / 1000000001 | TPS 25691.9 | ETA 09:03:30
Time 01:45:40 | Step 162432807 / 1000000001 | TPS 25632.6 | ETA 09:04:35
Time 01:45:50 | Step 162690395 / 1000000001 | TPS 25758.8 | ETA 09:01:45
Time 01:46:00 | Step 162946247 / 1000000001 | TPS 25585.2 | ETA 09:05:16
Time 01:46:10 | Step 163202787 / 1000000001 | TPS 25653.9 | ETA 09:03:38
Time 01:46:20 | Step 163459207 / 1000000001 | TPS 25642 | ETA 09:03:43
Time 01:46:30 | Step 163717193 / 1000000001 | TPS 25798.6 | ETA 09:00:15
Time 01:46:40 | Step 163962822 / 1000000001 | TPS 24562.9 | ETA 09:27:16
Time 01:46:50 | Step 164210845 / 1000000001 | TPS 24802.2 | ETA 09:21:38
Time 01:47:00 | Step 164466248 / 1000000001 | TPS 25540.2 | ETA 09:05:14
Time 01:47:10 | Step 164722387 / 1000000001 | TPS 25613.9 | ETA 09:03:30
Time 01:47:20 | Step 164977484 / 1000000001 | TPS 25509.6 | ETA 09:05:33
Time 01:47:30 | Step 165233309 / 1000000001 | TPS 25582.4 | ETA 09:03:50
Time 01:47:40 | Step 165488134 / 1000000001 | TPS 25482.3 | ETA 09:05:48
Time 01:47:50 | Step 165744337 / 1000000001 | TPS 25620.1 | ETA 09:02:42
Time 01:48:00 | Step 165999920 / 1000000001 | TPS 25558.2 | ETA 09:03:51
Time 01:48:10 | Step 166255235 / 1000000001 | TPS 25531.5 | ETA 09:04:15
Time 01:48:20 | Step 166503558 / 1000000001 | TPS 24832.2 | ETA 09:19:25
Time 01:48:30 | Step 166755001 / 1000000001 | TPS 25143.9 | ETA 09:12:19
Time 01:48:40 | Step 167009440 / 1000000001 | TPS 25443.9 | ETA 09:05:38
Time 01:48:50 | Step 167263779 / 1000000001 | TPS 25433.8 | ETA 09:05:41
Time 01:49:00 | Step 167518582 / 1000000001 | TPS 25480.3 | ETA 09:04:31
Time 01:49:10 | Step 167774162 / 1000000001 | TPS 25558 | ETA 09:02:42
Time 01:49:20 | Step 168030198 / 1000000001 | TPS 25603.5 | ETA 09:01:34
Time 01:49:30 | Step 168279300 / 1000000001 | TPS 24910 | ETA 09:16:28
Time 01:49:40 | Step 168533725 / 1000000001 | TPS 25442.5 | ETA 09:04:40
Time 01:49:50 | Step 168788910 / 1000000001 | TPS 25518.4 | ETA 09:02:52
Time 01:50:00 | Step 169043551 / 1000000001 | TPS 25464.1 | ETA 09:03:52
Time 01:50:10 | Step 169299341 / 1000000001 | TPS 25579 | ETA 09:01:15
Time 01:50:20 | Step 169553295 / 1000000001 | TPS 25395.4 | ETA 09:05:00
Time 01:50:30 | Step 169807421 / 1000000001 | TPS 25412.5 | ETA 09:04:28
Time 01:50:40 | Step 170063310 / 1000000001 | TPS 25588.8 | ETA 09:00:33
Time 01:50:50 | Step 170317540 / 1000000001 | TPS 25422.8 | ETA 09:03:55
Time 01:51:00 | Step 170565806 / 1000000001 | TPS 24826.6 | ETA 09:16:49
Time 01:51:10 | Step 170787239 / 1000000001 | TPS 22143.2 | ETA 10:24:07
Time 01:51:20 | Step 171040464 / 1000000001 | TPS 25322.4 | ETA 09:05:36
Time 01:51:30 | Step 171296264 / 1000000001 | TPS 25580 | ETA 08:59:56
Time 01:51:40 | Step 171552156 / 1000000001 | TPS 25589.2 | ETA 08:59:34
Time 01:51:50 | Step 171804755 / 1000000001 | TPS 25259.7 | ETA 09:06:27
Time 01:52:00 | Step 172049367 / 1000000001 | TPS 24461.1 | ETA 09:24:07
Time 01:52:10 | Step 172305749 / 1000000001 | TPS 25638.2 | ETA 08:58:03
Time 01:52:20 | Step 172559168 / 1000000001 | TPS 25341.9 | ETA 09:04:11
Time 01:52:30 | Step 172814664 / 1000000001 | TPS 25549.5 | ETA 08:59:35
Time 01:52:40 | Step 173071711 / 1000000001 | TPS 25704.7 | ETA 08:56:10
Time 01:52:50 | Step 173327972 / 1000000001 | TPS 25625.9 | ETA 08:57:39
Time 01:53:00 | Step 173582949 / 1000000001 | TPS 25497.7 | ETA 09:00:11
Time 01:53:10 | Step 173833907 / 1000000001 | TPS 25095.8 | ETA 09:08:40
Time 01:53:20 | Step 174089274 / 1000000001 | TPS 25536.7 | ETA 08:59:02
Time 01:53:30 | Step 174344117 / 1000000001 | TPS 25484.3 | ETA 08:59:58
Time 01:53:40 | Step 174598885 / 1000000001 | TPS 25476.7 | ETA 08:59:58
Time 01:53:50 | Step 174848879 / 1000000001 | TPS 24999.3 | ETA 09:10:06
Time 01:54:00 | Step 175102903 / 1000000001 | TPS 25402.4 | ETA 09:01:13
Time 01:54:10 | Step 175349356 / 1000000001 | TPS 24645.2 | ETA 09:17:40
Time 01:54:20 | Step 175604400 / 1000000001 | TPS 25504.3 | ETA 08:58:43
Time 01:54:30 | Step 175852958 / 1000000001 | TPS 24855.8 | ETA 09:12:37
Time 01:54:40 | Step 176095357 / 1000000001 | TPS 24239.8 | ETA 09:26:29
Time 01:54:50 | Step 176340322 / 1000000001 | TPS 24496.5 | ETA 09:20:23
Time 01:55:00 | Step 176593874 / 1000000001 | TPS 25355.2 | ETA 09:01:14
Time 01:55:10 | Step 176849718 / 1000000001 | TPS 25584.4 | ETA 08:56:13
Time 01:55:20 | Step 177102329 / 1000000001 | TPS 25261.1 | ETA 09:02:55
Time 01:55:30 | Step 177350353 / 1000000001 | TPS 24802.4 | ETA 09:12:48
Time 01:55:40 | Step 177602791 / 1000000001 | TPS 25243.7 | ETA 09:02:58
Time 01:55:50 | Step 177858794 / 1000000001 | TPS 25600.3 | ETA 08:55:14
Time 01:56:00 | Step 178102873 / 1000000001 | TPS 24407.8 | ETA 09:21:13
Time 01:56:10 | Step 178332839 / 1000000001 | TPS 22996.6 | ETA 09:55:29
Time 01:56:20 | Step 178583299 / 1000000001 | TPS 25045.9 | ETA 09:06:36
Time 01:56:30 | Step 178836613 / 1000000001 | TPS 25331.3 | ETA 09:00:16
Time 01:56:40 | Step 179066704 / 1000000001 | TPS 23009.1 | ETA 09:54:38
Time 01:56:50 | Step 179306623 / 1000000001 | TPS 23991.8 | ETA 09:30:07
Time 01:57:00 | Step 179547350 / 1000000001 | TPS 24072.7 | ETA 09:28:02
Time 01:57:10 | Step 179787891 / 1000000001 | TPS 24054.1 | ETA 09:28:18
Time 01:57:20 | Step 180039523 / 1000000001 | TPS 25163.2 | ETA 09:03:05
Time 01:57:30 | Step 180288196 / 1000000001 | TPS 24867.2 | ETA 09:09:23
Time 01:57:40 | Step 180504269 / 1000000001 | TPS 21607.3 | ETA 10:32:06
Time 01:57:50 | Step 180748076 / 1000000001 | TPS 24380.7 | ETA 09:20:02
Time 01:58:00 | Step 181000867 / 1000000001 | TPS 25279.1 | ETA 08:59:58
Time 01:58:10 | Step 181248479 / 1000000001 | TPS 24761.1 | ETA 09:11:05
Time 01:58:20 | Step 181487991 / 1000000001 | TPS 23951.1 | ETA 09:29:34
Time 01:58:30 | Step 181722817 / 1000000001 | TPS 23482.5 | ETA 09:40:46
Time 01:58:40 | Step 181973921 / 1000000001 | TPS 25110.4 | ETA 09:02:57
Time 01:58:50 | Step 182225002 / 1000000001 | TPS 25108 | ETA 09:02:50
Time 01:59:00 | Step 182477677 / 1000000001 | TPS 25267.4 | ETA 08:59:14
Time 01:59:10 | Step 182728978 / 1000000001 | TPS 25130.1 | ETA 09:02:01
Time 01:59:20 | Step 182983166 / 1000000001 | TPS 25418.7 | ETA 08:55:42
Time 01:59:30 | Step 183237865 / 1000000001 | TPS 25469.7 | ETA 08:54:28
Time 01:59:40 | Step 183493561 / 1000000001 | TPS 25569.5 | ETA 08:52:12
Time 01:59:50 | Step 183748405 / 1000000001 | TPS 25484.2 | ETA 08:53:49
Time 02:00:00 | Step 184001652 / 1000000001 | TPS 25324.7 | ETA 08:57:01
Time 02:00:10 | Step 184255299 / 1000000001 | TPS 25364.7 | ETA 08:56:00
Time 02:00:20 | Step 184509121 / 1000000001 | TPS 25382.2 | ETA 08:55:28
Time 02:00:30 | Step 184764431 / 1000000001 | TPS 25531 | ETA 08:52:11
Time 02:00:40 | Step 185018929 / 1000000001 | TPS 25449.8 | ETA 08:53:43
Time 02:00:50 | Step 185270732 / 1000000001 | TPS 25180.3 | ETA 08:59:15
Time 02:01:00 | Step 185521874 / 1000000001 | TPS 25114.2 | ETA 09:00:31
Time 02:01:10 | Step 185774744 / 1000000001 | TPS 25286.9 | ETA 08:56:39
Time 02:01:20 | Step 186026277 / 1000000001 | TPS 25153.2 | ETA 08:59:20
Time 02:01:30 | Step 186276808 / 1000000001 | TPS 25053.1 | ETA 09:01:19
Time 02:01:40 | Step 186519832 / 1000000001 | TPS 24302.2 | ETA 09:17:53
Time 02:01:50 | Step 186760381 / 1000000001 | TPS 24054.8 | ETA 09:23:27
Time 02:02:00 | Step 187008706 / 1000000001 | TPS 24832.4 | ETA 09:05:39
Time 02:02:10 | Step 187253076 / 1000000001 | TPS 24436.9 | ETA 09:14:19
Time 02:02:20 | Step 187495344 / 1000000001 | TPS 24226.7 | ETA 09:18:57
Time 02:02:30 | Step 187742731 / 1000000001 | TPS 24738.7 | ETA 09:07:13
Time 02:02:40 | Step 187977496 / 1000000001 | TPS 23476.5 | ETA 09:36:28
Time 02:02:50 | Step 188197767 / 1000000001 | TPS 22027.1 | ETA 10:14:14
Time 02:03:00 | Step 188437910 / 1000000001 | TPS 24014.2 | ETA 09:23:15
Time 02:03:10 | Step 188683676 / 1000000001 | TPS 24576.6 | ETA 09:10:11
Time 02:03:20 | Step 188912915 / 1000000001 | TPS 22923.9 | ETA 09:49:41
Time 02:03:30 | Step 189151165 / 1000000001 | TPS 23825 | ETA 09:27:13
Time 02:03:40 | Step 189395620 / 1000000001 | TPS 24445.4 | ETA 09:12:39
Time 02:03:50 | Step 189638599 / 1000000001 | TPS 24297.9 | ETA 09:15:51
Time 02:04:00 | Step 189883918 / 1000000001 | TPS 24531.8 | ETA 09:10:23
Time 02:04:10 | Step 190106579 / 1000000001 | TPS 22266 | ETA 10:06:13
Time 02:04:20 | Step 190348605 / 1000000001 | TPS 24202.6 | ETA 09:17:33
Time 02:04:30 | Step 190594393 / 1000000001 | TPS 24578.6 | ETA 09:08:51
Time 02:04:40 | Step 190831529 / 1000000001 | TPS 23713.6 | ETA 09:28:42
Time 02:04:50 | Step 191070634 / 1000000001 | TPS 23910.3 | ETA 09:23:51
Time 02:05:00 | Step 191313865 / 1000000001 | TPS 24323 | ETA 09:14:07
Time 02:05:10 | Step 191549013 / 1000000001 | TPS 23514.8 | ETA 09:33:00
Time 02:05:20 | Step 191774555 / 1000000001 | TPS 22554.2 | ETA 09:57:14
Time 02:05:30 | Step 192012739 / 1000000001 | TPS 23818.4 | ETA 09:25:22
Time 02:05:40 | Step 192254246 / 1000000001 | TPS 24150.7 | ETA 09:17:26
Time 02:05:50 | Step 192490857 / 1000000001 | TPS 23661 | ETA 09:28:48
Time 02:06:00 | Step 192723985 / 1000000001 | TPS 23312.8 | ETA 09:37:08
Time 02:06:10 | Step 192959514 / 1000000001 | TPS 23552.8 | ETA 09:31:05
Time 02:06:20 | Step 193204248 / 1000000001 | TPS 24473.4 | ETA 09:09:26
Time 02:06:30 | Step 193447512 / 1000000001 | TPS 24326.3 | ETA 09:12:35
Time 02:06:40 | Step 193687441 / 1000000001 | TPS 23992.8 | ETA 09:20:06
Time 02:06:50 | Step 193925067 / 1000000001 | TPS 23762.5 | ETA 09:25:22
Time 02:07:00 | Step 194156113 / 1000000001 | TPS 23104.6 | ETA 09:41:18
Time 02:07:10 | Step 194392895 / 1000000001 | TPS 23678.2 | ETA 09:27:03
Time 02:07:20 | Step 194628056 / 1000000001 | TPS 23516 | ETA 09:30:47
Time 02:07:30 | Step 194858701 / 1000000001 | TPS 23064.3 | ETA 09:41:48
Time 02:07:40 | Step 195090518 / 1000000001 | TPS 23181.7 | ETA 09:38:41
Time 02:07:50 | Step 195328547 / 1000000001 | TPS 23802.9 | ETA 09:23:25
Time 02:08:00 | Step 195555301 / 1000000001 | TPS 22675.1 | ETA 09:51:17
Time 02:08:10 | Step 195791258 / 1000000001 | TPS 23595.7 | ETA 09:28:02
Time 02:08:20 | Step 196026355 / 1000000001 | TPS 23509.7 | ETA 09:29:57
Time 02:08:30 | Step 196260326 / 1000000001 | TPS 23397.1 | ETA 09:32:32
Time 02:08:40 | Step 196500000 / 1000000001 | TPS 23967.4 | ETA 09:18:44
Time 02:08:50 | Step 196746956 / 1000000001 | TPS 24695.5 | ETA 09:02:06
Time 02:09:00 | Step 196989662 / 1000000001 | TPS 24270.5 | ETA 09:11:25
Time 02:09:10 | Step 197227739 / 1000000001 | TPS 23807.7 | ETA 09:21:59
Time 02:09:20 | Step 197469724 / 1000000001 | TPS 24198.5 | ETA 09:12:44
Time 02:09:30 | Step 197718960 / 1000000001 | TPS 24923.6 | ETA 08:56:29
Time 02:09:40 | Step 197971652 / 1000000001 | TPS 25269.1 | ETA 08:48:59
Time 02:09:50 | Step 198223945 / 1000000001 | TPS 25229.3 | ETA 08:49:39
Time 02:10:00 | Step 198473970 / 1000000001 | TPS 25002.5 | ETA 08:54:17
Time 02:10:10 | Step 198718696 / 1000000001 | TPS 24472.4 | ETA 09:05:42
Time 02:10:20 | Step 198953021 / 1000000001 | TPS 23432.4 | ETA 09:29:45
Time 02:10:30 | Step 199194036 / 1000000001 | TPS 24101.5 | ETA 09:13:46
Time 02:10:40 | Step 199439401 / 1000000001 | TPS 24536.5 | ETA 09:03:47
Time 02:10:50 | Step 199679142 / 1000000001 | TPS 23974 | ETA 09:16:22
Time 02:11:00 | Step 199916896 / 1000000001 | TPS 23775.4 | ETA 09:20:51
Time 02:11:10 | Step 200164853 / 1000000001 | TPS 24795.5 | ETA 08:57:37
Time 02:11:20 | Step 200410059 / 1000000001 | TPS 24520.5 | ETA 09:03:29
Time 02:11:30 | Step 200652453 / 1000000001 | TPS 24239.4 | ETA 09:09:37
Time 02:11:40 | Step 200889613 / 1000000001 | TPS 23716 | ETA 09:21:35
Time 02:11:50 | Step 201137291 / 1000000001 | TPS 24767.7 | ETA 08:57:34
Time 02:12:00 | Step 201385302 / 1000000001 | TPS 24801 | ETA 08:56:40
Time 02:12:10 | Step 201629833 / 1000000001 | TPS 24453 | ETA 09:04:09
Time 02:12:20 | Step 201863236 / 1000000001 | TPS 23340.3 | ETA 09:29:55
Time 02:12:30 | Step 202099661 / 1000000001 | TPS 23642.5 | ETA 09:22:28
Time 02:12:40 | Step 202323686 / 1000000001 | TPS 22402.4 | ETA 09:53:26
Time 02:12:50 | Step 202563001 / 1000000001 | TPS 23931.2 | ETA 09:15:22
Time 02:13:00 | Step 202804192 / 1000000001 | TPS 24119.1 | ETA 09:10:52
Time 02:13:10 | Step 203035987 / 1000000001 | TPS 23179.4 | ETA 09:33:02
Time 02:13:20 | Step 203273246 / 1000000001 | TPS 23725.9 | ETA 09:19:40
Time 02:13:30 | Step 203500253 / 1000000001 | TPS 22700.6 | ETA 09:44:47
Time 02:13:40 | Step 203723922 / 1000000001 | TPS 22366.8 | ETA 09:53:20
Time 02:13:50 | Step 203951826 / 1000000001 | TPS 22790.4 | ETA 09:42:09
Time 02:14:00 | Step 204182630 / 1000000001 | TPS 23080.4 | ETA 09:34:40
Time 02:14:10 | Step 204415485 / 1000000001 | TPS 23285.4 | ETA 09:29:26
Time 02:14:20 | Step 204653265 / 1000000001 | TPS 23777.9 | ETA 09:17:28
Time 02:14:30 | Step 204884134 / 1000000001 | TPS 23086.8 | ETA 09:34:00
Time 02:14:40 | Step 205124972 / 1000000001 | TPS 24083.7 | ETA 09:10:04
Time 02:14:50 | Step 205362013 / 1000000001 | TPS 23704.1 | ETA 09:18:43
Time 02:15:00 | Step 205595696 / 1000000001 | TPS 23368.3 | ETA 09:26:34
Time 02:15:10 | Step 205841525 / 1000000001 | TPS 24582.8 | ETA 08:58:25
Time 02:15:20 | Step 206086320 / 1000000001 | TPS 24479.4 | ETA 09:00:31
Time 02:15:30 | Step 206331454 / 1000000001 | TPS 24513.4 | ETA 08:59:36
Time 02:15:40 | Step 206570001 / 1000000001 | TPS 23854.6 | ETA 09:14:21
Time 02:15:50 | Step 206807789 / 1000000001 | TPS 23778.7 | ETA 09:15:57
Time 02:16:00 | Step 207041265 / 1000000001 | TPS 23347.5 | ETA 09:26:03
Time 02:16:10 | Step 207277057 / 1000000001 | TPS 23579 | ETA 09:20:19
Time 02:16:20 | Step 207517242 / 1000000001 | TPS 24018.5 | ETA 09:09:54
Time 02:16:30 | Step 207762601 / 1000000001 | TPS 24535.8 | ETA 08:58:09
Time 02:16:40 | Step 208002570 / 1000000001 | TPS 23996.8 | ETA 09:10:04
Time 02:16:50 | Step 208243141 / 1000000001 | TPS 24057.1 | ETA 09:08:31
Time 02:17:00 | Step 208474889 / 1000000001 | TPS 23174.8 | ETA 09:29:14
Time 02:17:10 | Step 208706555 / 1000000001 | TPS 23166.5 | ETA 09:29:16
Time 02:17:20 | Step 208933752 / 1000000001 | TPS 22719.7 | ETA 09:40:18
Time 02:17:30 | Step 209166346 / 1000000001 | TPS 23259.3 | ETA 09:26:40
Time 02:17:40 | Step 209390544 / 1000000001 | TPS 22419.7 | ETA 09:47:44
Time 02:17:50 | Step 209613131 / 1000000001 | TPS 22258.5 | ETA 09:51:49
Time 02:18:00 | Step 209836975 / 1000000001 | TPS 22384.4 | ETA 09:48:19
Time 02:18:10 | Step 210059490 / 1000000001 | TPS 22251.4 | ETA 09:51:40
Time 02:18:20 | Step 210282945 / 1000000001 | TPS 22345.5 | ETA 09:49:01
Time 02:18:30 | Step 210505660 / 1000000001 | TPS 22271.4 | ETA 09:50:48
Time 02:18:40 | Step 210731792 / 1000000001 | TPS 22613.2 | ETA 09:41:43
Time 02:18:50 | Step 210953717 / 1000000001 | TPS 22192.5 | ETA 09:52:34
Time 02:19:00 | Step 211171219 / 1000000001 | TPS 21750.1 | ETA 10:04:27
Time 02:19:10 | Step 211393907 / 1000000001 | TPS 22268.8 | ETA 09:50:13
Time 02:19:20 | Step 211610418 / 1000000001 | TPS 21651 | ETA 10:06:53
Time 02:19:30 | Step 211840654 / 1000000001 | TPS 23023.6 | ETA 09:30:32
Time 02:19:40 | Step 212068447 / 1000000001 | TPS 22779.3 | ETA 09:36:29
Time 02:19:50 | Step 212293304 / 1000000001 | TPS 22485.7 | ETA 09:43:51
Time 02:20:00 | Step 212520683 / 1000000001 | TPS 22737.8 | ETA 09:37:13
Time 02:20:10 | Step 212750105 / 1000000001 | TPS 22942.2 | ETA 09:31:54
Time 02:20:20 | Step 212973149 / 1000000001 | TPS 22304.4 | ETA 09:48:05
Time 02:20:30 | Step 213198036 / 1000000001 | TPS 22488.7 | ETA 09:43:06
Time 02:20:40 | Step 213430535 / 1000000001 | TPS 23249.9 | ETA 09:23:51
Time 02:20:50 | Step 213668344 / 1000000001 | TPS 23780.8 | ETA 09:11:05
Time 02:21:00 | Step 213900636 / 1000000001 | TPS 23229.1 | ETA 09:24:01
Time 02:21:10 | Step 214128795 / 1000000001 | TPS 22815.9 | ETA 09:34:04
Time 02:21:20 | Step 214358690 / 1000000001 | TPS 22989.4 | ETA 09:29:34
Time 02:21:30 | Step 214587119 / 1000000001 | TPS 22842.9 | ETA 09:33:03
Time 02:21:40 | Step 214816691 / 1000000001 | TPS 22957.2 | ETA 09:30:02
Time 02:21:50 | Step 215052263 / 1000000001 | TPS 23557 | ETA 09:15:21
Time 02:22:00 | Step 215274926 / 1000000001 | TPS 22266.3 | ETA 09:47:22
Time 02:22:10 | Step 215491892 / 1000000001 | TPS 21696.5 | ETA 10:02:38
Time 02:22:20 | Step 215717929 / 1000000001 | TPS 22603.6 | ETA 09:38:17
Time 02:22:30 | Step 215937145 / 1000000001 | TPS 21921.5 | ETA 09:56:06
Time 02:22:40 | Step 216164581 / 1000000001 | TPS 22743.5 | ETA 09:34:24
Time 02:22:50 | Step 216387502 / 1000000001 | TPS 22292.1 | ETA 09:45:52
Time 02:23:00 | Step 216609234 / 1000000001 | TPS 22173.1 | ETA 09:48:50
Time 02:23:10 | Step 216829827 / 1000000001 | TPS 22059.3 | ETA 09:51:42
Time 02:23:20 | Step 217050723 / 1000000001 | TPS 22089.5 | ETA 09:50:44
Time 02:23:30 | Step 217272744 / 1000000001 | TPS 22202 | ETA 09:47:34
Time 02:23:40 | Step 217497669 / 1000000001 | TPS 22492.5 | ETA 09:39:49
Time 02:23:50 | Step 217718480 / 1000000001 | TPS 22081 | ETA 09:50:27
Time 02:24:00 | Step 217937391 / 1000000001 | TPS 21891.1 | ETA 09:55:25
Time 02:24:10 | Step 218157263 / 1000000001 | TPS 21987.1 | ETA 09:52:39
Time 02:24:20 | Step 218378054 / 1000000001 | TPS 22079.1 | ETA 09:50:01
Time 02:24:30 | Step 218598483 / 1000000001 | TPS 22042.8 | ETA 09:50:49
Time 02:24:40 | Step 218815860 / 1000000001 | TPS 21737.7 | ETA 09:58:56
Time 02:24:50 | Step 219031583 / 1000000001 | TPS 21572.3 | ETA 10:03:22
Time 02:25:00 | Step 219244933 / 1000000001 | TPS 21334.9 | ETA 10:09:55
Time 02:25:10 | Step 219462422 / 1000000001 | TPS 21748.9 | ETA 09:58:08
Time 02:25:20 | Step 219679057 / 1000000001 | TPS 21663.5 | ETA 10:00:20
Time 02:25:30 | Step 219892161 / 1000000001 | TPS 21310.3 | ETA 10:10:07
Time 02:25:40 | Step 220107257 / 1000000001 | TPS 21509.5 | ETA 10:04:18
Time 02:25:50 | Step 220323032 / 1000000001 | TPS 21577.5 | ETA 10:02:13
Time 02:26:00 | Step 220537822 / 1000000001 | TPS 21479 | ETA 10:04:49
Time 02:26:10 | Step 220756857 / 1000000001 | TPS 21903.5 | ETA 09:52:56
Time 02:26:20 | Step 220976209 / 1000000001 | TPS 21935 | ETA 09:51:55
Time 02:26:30 | Step 221193870 / 1000000001 | TPS 21766 | ETA 09:56:20
Time 02:26:40 | Step 221411270 / 1000000001 | TPS 21739.9 | ETA 09:56:53
Time 02:26:50 | Step 221625981 / 1000000001 | TPS 21471.1 | ETA 10:04:12
Time 02:27:00 | Step 221842271 / 1000000001 | TPS 21628.9 | ETA 09:59:37
Time 02:27:10 | Step 222058964 / 1000000001 | TPS 21669.2 | ETA 09:58:20
Time 02:27:20 | Step 222279721 / 1000000001 | TPS 22075.6 | ETA 09:47:09
Time 02:27:30 | Step 222494821 / 1000000001 | TPS 21509.9 | ETA 10:02:26
Time 02:27:40 | Step 222710613 / 1000000001 | TPS 21579.1 | ETA 10:00:20
Time 02:27:50 | Step 222928804 / 1000000001 | TPS 21819.1 | ETA 09:53:34
Time 02:28:00 | Step 223145421 / 1000000001 | TPS 21661.6 | ETA 09:57:43
Time 02:28:10 | Step 223360297 / 1000000001 | TPS 21487.6 | ETA 10:02:23
Time 02:28:20 | Step 223577213 / 1000000001 | TPS 21691.6 | ETA 09:56:33
Time 02:28:30 | Step 223795615 / 1000000001 | TPS 21840.2 | ETA 09:52:20
Time 02:28:40 | Step 224013317 / 1000000001 | TPS 21770.2 | ETA 09:54:04
Time 02:28:50 | Step 224230477 / 1000000001 | TPS 21715.8 | ETA 09:55:23
Time 02:29:00 | Step 224446986 / 1000000001 | TPS 21650.9 | ETA 09:57:00
Time 02:29:10 | Step 224664809 / 1000000001 | TPS 21782.3 | ETA 09:53:14
Time 02:29:20 | Step 224883367 / 1000000001 | TPS 21855.8 | ETA 09:51:05
Time 02:29:30 | Step 225101489 / 1000000001 | TPS 21812 | ETA 09:52:06
Time 02:29:40 | Step 225318097 / 1000000001 | TPS 21660.7 | ETA 09:56:04
Time 02:29:50 | Step 225537419 / 1000000001 | TPS 21932.2 | ETA 09:48:31
Time 02:30:00 | Step 225754984 / 1000000001 | TPS 21756.5 | ETA 09:53:06
Time 02:30:10 | Step 225972601 / 1000000001 | TPS 21761.3 | ETA 09:52:48
Time 02:30:20 | Step 226187383 / 1000000001 | TPS 21478.2 | ETA 10:00:27
Time 02:30:30 | Step 226410809 / 1000000001 | TPS 22342.5 | ETA 09:37:04
Time 02:30:40 | Step 226634839 / 1000000001 | TPS 22402.9 | ETA 09:35:20
Time 02:30:50 | Step 226857061 / 1000000001 | TPS 22222 | ETA 09:39:51
Time 02:31:00 | Step 227077537 / 1000000001 | TPS 22047.5 | ETA 09:44:17
Time 02:31:10 | Step 227297665 / 1000000001 | TPS 22012.7 | ETA 09:45:02
Time 02:31:20 | Step 227519251 / 1000000001 | TPS 22158.5 | ETA 09:41:01
Time 02:31:30 | Step 227740406 / 1000000001 | TPS 22115.5 | ETA 09:41:59
Time 02:31:40 | Step 227958548 / 1000000001 | TPS 21814.2 | ETA 09:49:51
Time 02:31:50 | Step 228179649 / 1000000001 | TPS 22110.1 | ETA 09:41:48
Time 02:32:00 | Step 228399996 / 1000000001 | TPS 22034.6 | ETA 09:43:37
Time 02:32:10 | Step 228617190 / 1000000001 | TPS 21719.3 | ETA 09:51:55
Time 02:32:20 | Step 228834996 / 1000000001 | TPS 21780.6 | ETA 09:50:06
Time 02:32:30 | Step 229052131 / 1000000001 | TPS 21713.5 | ETA 09:51:45
Time 02:32:40 | Step 229272830 / 1000000001 | TPS 22069.8 | ETA 09:42:02
Time 02:32:50 | Step 229493696 / 1000000001 | TPS 22086.5 | ETA 09:41:25
Time 02:33:00 | Step 229714083 / 1000000001 | TPS 22038.5 | ETA 09:42:31
Time 02:33:10 | Step 229932509 / 1000000001 | TPS 21842.5 | ETA 09:47:35
Time 02:33:20 | Step 230148606 / 1000000001 | TPS 21609.6 | ETA 09:53:45
Time 02:33:30 | Step 230367594 / 1000000001 | TPS 21898.8 | ETA 09:45:44
Time 02:33:40 | Step 230583195 / 1000000001 | TPS 21560 | ETA 09:54:47
Time 02:33:50 | Step 230802901 / 1000000001 | TPS 21970.2 | ETA 09:43:30
Time 02:34:00 | Step 231023377 / 1000000001 | TPS 22047.5 | ETA 09:41:18
Time 02:34:10 | Step 231240923 / 1000000001 | TPS 21754.5 | ETA 09:48:57
Time 02:34:20 | Step 231459184 / 1000000001 | TPS 21825.9 | ETA 09:46:52
Time 02:34:30 | Step 231679565 / 1000000001 | TPS 22038 | ETA 09:41:03
Time 02:34:40 | Step 231897037 / 1000000001 | TPS 21747.2 | ETA 09:48:39
Time 02:34:50 | Step 232114573 / 1000000001 | TPS 21753.6 | ETA 09:48:19
Time 02:35:00 | Step 232328912 / 1000000001 | TPS 21433.9 | ETA 09:56:55
Time 02:35:10 | Step 232542044 / 1000000001 | TPS 21313.1 | ETA 10:00:08
Time 02:35:20 | Step 232755601 / 1000000001 | TPS 21355.5 | ETA 09:58:47
Time 02:35:30 | Step 232970679 / 1000000001 | TPS 21507.8 | ETA 09:54:22
Time 02:35:40 | Step 233186742 / 1000000001 | TPS 21606.2 | ETA 09:51:30
Time 02:35:50 | Step 233404697 / 1000000001 | TPS 21795.5 | ETA 09:46:12
Time 02:36:00 | Step 233622479 / 1000000001 | TPS 21778.2 | ETA 09:46:30
Time 02:36:10 | Step 233837963 / 1000000001 | TPS 21548.3 | ETA 09:52:35
Time 02:36:20 | Step 234052304 / 1000000001 | TPS 21434 | ETA 09:55:35
Time 02:36:30 | Step 234268852 / 1000000001 | TPS 21654.8 | ETA 09:49:20
Time 02:36:40 | Step 234482943 / 1000000001 | TPS 21409.1 | ETA 09:55:56
Time 02:36:50 | Step 234699646 / 1000000001 | TPS 21670.2 | ETA 09:48:35
Time 02:37:00 | Step 234918045 / 1000000001 | TPS 21839.9 | ETA 09:43:51
Time 02:37:10 | Step 235135764 / 1000000001 | TPS 21771.9 | ETA 09:45:30
Time 02:37:20 | Step 235353587 / 1000000001 | TPS 21782.2 | ETA 09:45:04
Time 02:37:30 | Step 235570948 / 1000000001 | TPS 21736 | ETA 09:46:08
Time 02:37:40 | Step 235788522 / 1000000001 | TPS 21757.4 | ETA 09:45:24
Time 02:37:50 | Step 236006023 / 1000000001 | TPS 21750 | ETA 09:45:26
Time 02:38:00 | Step 236223205 / 1000000001 | TPS 21718.2 | ETA 09:46:07
Time 02:38:10 | Step 236442384 / 1000000001 | TPS 21917.8 | ETA 09:40:37
Time 02:38:20 | Step 236659619 / 1000000001 | TPS 21723.4 | ETA 09:45:39
Time 02:38:30 | Step 236877465 / 1000000001 | TPS 21784.5 | ETA 09:43:50
Time 02:38:40 | Step 237094920 / 1000000001 | TPS 21745.5 | ETA 09:44:43
Time 02:38:50 | Step 237312347 / 1000000001 | TPS 21742.7 | ETA 09:44:37
Time 02:39:00 | Step 237532717 / 1000000001 | TPS 22036.9 | ETA 09:36:39
Time 02:39:10 | Step 237749892 / 1000000001 | TPS 21717.4 | ETA 09:44:58
Time 02:39:20 | Step 237964176 / 1000000001 | TPS 21428.3 | ETA 09:52:42
Time 02:39:30 | Step 238180672 / 1000000001 | TPS 21649.6 | ETA 09:46:28
Time 02:39:40 | Step 238397323 / 1000000001 | TPS 21665.1 | ETA 09:45:53
Time 02:39:50 | Step 238613980 / 1000000001 | TPS 21665.6 | ETA 09:45:42
Time 02:40:00 | Step 238829733 / 1000000001 | TPS 21575.3 | ETA 09:47:59
Time 02:40:10 | Step 239047861 / 1000000001 | TPS 21812.7 | ETA 09:41:25
Time 02:40:20 | Step 239265431 / 1000000001 | TPS 21756.9 | ETA 09:42:45
Time 02:40:30 | Step 239482532 / 1000000001 | TPS 21710.1 | ETA 09:43:50
Time 02:40:40 | Step 239700302 / 1000000001 | TPS 21777 | ETA 09:41:52
Time 02:40:50 | Step 239916332 / 1000000001 | TPS 21602.9 | ETA 09:46:24
Time 02:41:00 | Step 240131942 / 1000000001 | TPS 21560.9 | ETA 09:47:22
Time 02:41:10 | Step 240347272 / 1000000001 | TPS 21532.9 | ETA 09:47:58
Time 02:41:20 | Step 240562527 / 1000000001 | TPS 21525.5 | ETA 09:48:00
Time 02:41:30 | Step 240777386 / 1000000001 | TPS 21485.8 | ETA 09:48:55
Time 02:41:40 | Step 240990340 / 1000000001 | TPS 21295.4 | ETA 09:54:01
Time 02:41:50 | Step 241204733 / 1000000001 | TPS 21439.2 | ETA 09:49:52
Time 02:42:00 | Step 241420801 / 1000000001 | TPS 21606.6 | ETA 09:45:08
Time 02:42:10 | Step 241636525 / 1000000001 | TPS 21572.2 | ETA 09:45:54
Time 02:42:20 | Step 241854173 / 1000000001 | TPS 21764.8 | ETA 09:40:33
Time 02:42:30 | Step 242068152 / 1000000001 | TPS 21397.7 | ETA 09:50:21
Time 02:42:40 | Step 242281129 / 1000000001 | TPS 21297.7 | ETA 09:52:57
Time 02:42:50 | Step 242496351 / 1000000001 | TPS 21522.2 | ETA 09:46:36
Time 02:43:00 | Step 242711637 / 1000000001 | TPS 21528.6 | ETA 09:46:15
Time 02:43:10 | Step 242925712 / 1000000001 | TPS 21407.5 | ETA 09:49:24
Time 02:43:20 | Step 243139637 / 1000000001 | TPS 21392.5 | ETA 09:49:39
Time 02:43:30 | Step 243355180 / 1000000001 | TPS 21554.3 | ETA 09:45:04
Time 02:43:40 | Step 243573018 / 1000000001 | TPS 21783.8 | ETA 09:38:44
Time 02:43:50 | Step 243790290 / 1000000001 | TPS 21727.2 | ETA 09:40:04
Time 02:44:00 | Step 244004449 / 1000000001 | TPS 21415.8 | ETA 09:48:20
Time 02:44:10 | Step 244218001 / 1000000001 | TPS 21355.1 | ETA 09:49:51
Time 02:44:20 | Step 244433720 / 1000000001 | TPS 21571.8 | ETA 09:43:45
Time 02:44:30 | Step 244649586 / 1000000001 | TPS 21586.5 | ETA 09:43:11
Time 02:44:40 | Step 244865504 / 1000000001 | TPS 21591.8 | ETA 09:42:53
Time 02:44:50 | Step 245087696 / 1000000001 | TPS 22219.2 | ETA 09:26:15
Time 02:45:00 | Step 245304435 / 1000000001 | TPS 21673.8 | ETA 09:40:20
Time 02:45:10 | Step 245519040 / 1000000001 | TPS 21460.5 | ETA 09:45:56
Time 02:45:20 | Step 245735218 / 1000000001 | TPS 21617.7 | ETA 09:41:31
Time 02:45:30 | Step 245955221 / 1000000001 | TPS 22000.2 | ETA 09:31:14
Time 02:45:40 | Step 246171875 / 1000000001 | TPS 21665.4 | ETA 09:39:54
Time 02:45:50 | Step 246388131 / 1000000001 | TPS 21625.6 | ETA 09:40:48
Time 02:46:00 | Step 246603116 / 1000000001 | TPS 21498.4 | ETA 09:44:04
Time 02:46:10 | Step 246819837 / 1000000001 | TPS 21672 | ETA 09:39:13
Time 02:46:20 | Step 247040105 / 1000000001 | TPS 22026.7 | ETA 09:29:43
Time 02:46:30 | Step 247262149 / 1000000001 | TPS 22204.4 | ETA 09:25:00
Time 02:46:40 | Step 247481163 / 1000000001 | TPS 21901.4 | ETA 09:32:39
Time 02:46:50 | Step 247697011 / 1000000001 | TPS 21584.8 | ETA 09:40:53
Time 02:47:00 | Step 247910784 / 1000000001 | TPS 21377.2 | ETA 09:46:21
Time 02:47:10 | Step 248125138 / 1000000001 | TPS 21435.4 | ETA 09:44:36
Time 02:47:20 | Step 248341741 / 1000000001 | TPS 21660.1 | ETA 09:38:22
Time 02:47:30 | Step 248556736 / 1000000001 | TPS 21499.4 | ETA 09:42:31
Time 02:47:40 | Step 248772689 / 1000000001 | TPS 21595.1 | ETA 09:39:46
Time 02:47:50 | Step 248988481 / 1000000001 | TPS 21579.2 | ETA 09:40:02
Time 02:48:00 | Step 249205106 / 1000000001 | TPS 21662.4 | ETA 09:37:38
Time 02:48:10 | Step 249420011 / 1000000001 | TPS 21490.4 | ETA 09:42:06
Time 02:48:20 | Step 249634768 / 1000000001 | TPS 21475.7 | ETA 09:42:20
Time 02:48:30 | Step 249849313 / 1000000001 | TPS 21454.5 | ETA 09:42:44
Time 02:48:40 | Step 250063731 / 1000000001 | TPS 21441.7 | ETA 09:42:55
Time 02:48:50 | Step 250278868 / 1000000001 | TPS 21513.7 | ETA 09:40:48
Time 02:49:00 | Step 250492643 / 1000000001 | TPS 21377.5 | ETA 09:44:20
Time 02:49:10 | Step 250706203 / 1000000001 | TPS 21356 | ETA 09:44:45
[...]
Time 04:14:40 | Step 360362072 / 1000000001 | TPS 21304 | ETA 08:20:24
Time 04:14:50 | Step 360574484 / 1000000001 | TPS 21241.2 | ETA 08:21:43
Time 04:15:00 | Step 360787784 / 1000000001 | TPS 21329.9 | ETA 08:19:27
Time 04:15:10 | Step 361001526 / 1000000001 | TPS 21374.1 | ETA 08:18:15
Time 04:15:20 | Step 361215138 / 1000000001 | TPS 21361.2 | ETA 08:18:24
Time 04:15:30 | Step 361428879 / 1000000001 | TPS 21374.1 | ETA 08:17:55
Time 04:15:40 | Step 361642826 / 1000000001 | TPS 21394.7 | ETA 08:17:17
Time 04:15:50 | Step 361857383 / 1000000001 | TPS 21455.7 | ETA 08:15:42
Time 04:16:00 | Step 362071388 / 1000000001 | TPS 21400.5 | ETA 08:16:49
Time 04:16:10 | Step 362285615 / 1000000001 | TPS 21422.7 | ETA 08:16:08
Time 04:16:20 | Step 362500358 / 1000000001 | TPS 21474.1 | ETA 08:14:46
Time 04:16:30 | Step 362714836 / 1000000001 | TPS 21447.8 | ETA 08:15:13
Time 04:16:40 | Step 362928354 / 1000000001 | TPS 21351.7 | ETA 08:17:17
Time 04:16:50 | Step 363142315 / 1000000001 | TPS 21396.1 | ETA 08:16:05
Time 04:17:00 | Step 363355267 / 1000000001 | TPS 21295.1 | ETA 08:18:16
Time 04:17:10 | Step 363568884 / 1000000001 | TPS 21361.6 | ETA 08:16:33
Time 04:17:20 | Step 363782936 / 1000000001 | TPS 21405.2 | ETA 08:15:22
Time 04:17:30 | Step 363996915 / 1000000001 | TPS 21397.9 | ETA 08:15:22
Time 04:17:40 | Step 364210954 / 1000000001 | TPS 21403.8 | ETA 08:15:04
Time 04:17:50 | Step 364425440 / 1000000001 | TPS 21448.6 | ETA 08:13:52
Time 04:18:00 | Step 364638906 / 1000000001 | TPS 21346.6 | ETA 08:16:04
Time 04:18:10 | Step 364851777 / 1000000001 | TPS 21287 | ETA 08:17:17
Time 04:18:20 | Step 365063186 / 1000000001 | TPS 21140.9 | ETA 08:20:33
Time 04:18:30 | Step 365274615 / 1000000001 | TPS 21142.8 | ETA 08:20:20
Time 04:18:40 | Step 365485694 / 1000000001 | TPS 21107.8 | ETA 08:21:00
Time 04:18:50 | Step 365698668 / 1000000001 | TPS 21297.4 | ETA 08:16:23
Time 04:19:00 | Step 365911861 / 1000000001 | TPS 21319.1 | ETA 08:15:42
Time 04:19:10 | Step 366125146 / 1000000001 | TPS 21328.5 | ETA 08:15:19
Time 04:19:20 | Step 366338256 / 1000000001 | TPS 21311 | ETA 08:15:34
Time 04:19:30 | Step 366551850 / 1000000001 | TPS 21359.3 | ETA 08:14:16
Time 04:19:40 | Step 366764271 / 1000000001 | TPS 21242.1 | ETA 08:16:50
Time 04:19:50 | Step 366977326 / 1000000001 | TPS 21305.4 | ETA 08:15:11
Time 04:20:00 | Step 367190264 / 1000000001 | TPS 21293.7 | ETA 08:15:18
Time 04:20:10 | Step 367403684 / 1000000001 | TPS 21341.9 | ETA 08:14:00
Time 04:20:20 | Step 367616810 / 1000000001 | TPS 21312.5 | ETA 08:14:31
Time 04:20:30 | Step 367829391 / 1000000001 | TPS 21258.1 | ETA 08:15:37
Time 04:20:40 | Step 368042414 / 1000000001 | TPS 21302.2 | ETA 08:14:26
Time 04:20:50 | Step 368255593 / 1000000001 | TPS 21317.8 | ETA 08:13:54
Time 04:21:00 | Step 368469001 / 1000000001 | TPS 21340.8 | ETA 08:13:12
Time 04:21:10 | Step 368681196 / 1000000001 | TPS 21219.4 | ETA 08:15:51
Time 04:21:20 | Step 368893490 / 1000000001 | TPS 21229.3 | ETA 08:15:28
Time 04:21:30 | Step 369104320 / 1000000001 | TPS 21082.9 | ETA 08:18:44
Time 04:21:40 | Step 369317401 / 1000000001 | TPS 21308 | ETA 08:13:18
Time 04:21:50 | Step 369530557 / 1000000001 | TPS 21315.6 | ETA 08:12:57
Time 04:22:00 | Step 369742940 / 1000000001 | TPS 21238.3 | ETA 08:14:35
Time 04:22:10 | Step 369954867 / 1000000001 | TPS 21192.7 | ETA 08:15:29
Time 04:22:20 | Step 370165886 / 1000000001 | TPS 21101.9 | ETA 08:17:27
Time 04:22:30 | Step 370377696 / 1000000001 | TPS 21180.9 | ETA 08:15:25
Time 04:22:40 | Step 370590584 / 1000000001 | TPS 21288.8 | ETA 08:12:45
Time 04:22:50 | Step 370803418 / 1000000001 | TPS 21283.4 | ETA 08:12:42
Time 04:23:00 | Step 371014609 / 1000000001 | TPS 21119.1 | ETA 08:16:22
Time 04:23:10 | Step 371226686 / 1000000001 | TPS 21207.7 | ETA 08:14:08
Time 04:23:20 | Step 371439596 / 1000000001 | TPS 21291 | ETA 08:12:02
Time 04:23:30 | Step 371652407 / 1000000001 | TPS 21281.1 | ETA 08:12:06
Time 04:23:40 | Step 371864257 / 1000000001 | TPS 21184.9 | ETA 08:14:10
Time 04:23:50 | Step 372076063 / 1000000001 | TPS 21180.6 | ETA 08:14:06
Time 04:24:00 | Step 372288736 / 1000000001 | TPS 21267.2 | ETA 08:11:55
Time 04:24:10 | Step 372502687 / 1000000001 | TPS 21395.1 | ETA 08:08:49
Time 04:24:20 | Step 372715527 / 1000000001 | TPS 21283.8 | ETA 08:11:12
Time 04:24:30 | Step 372929055 / 1000000001 | TPS 21352.8 | ETA 08:09:27
Time 04:24:40 | Step 373142218 / 1000000001 | TPS 21316.3 | ETA 08:10:07
Time 04:24:50 | Step 373355528 / 1000000001 | TPS 21330.9 | ETA 08:09:37
Time 04:25:00 | Step 373567235 / 1000000001 | TPS 21170.7 | ETA 08:13:09
Time 04:25:10 | Step 373779895 / 1000000001 | TPS 21266 | ETA 08:10:47
Time 04:25:20 | Step 373991971 / 1000000001 | TPS 21207.6 | ETA 08:11:58
Time 04:25:30 | Step 374203966 / 1000000001 | TPS 21199.4 | ETA 08:11:59
Time 04:25:40 | Step 374416429 / 1000000001 | TPS 21246.1 | ETA 08:10:44
Time 04:25:50 | Step 374628917 / 1000000001 | TPS 21248.7 | ETA 08:10:31
Time 04:26:00 | Step 374843248 / 1000000001 | TPS 21433 | ETA 08:06:07
Time 04:26:10 | Step 375056519 / 1000000001 | TPS 21327 | ETA 08:08:22
Time 04:26:20 | Step 375269393 / 1000000001 | TPS 21287.3 | ETA 08:09:07
Time 04:26:30 | Step 375482727 / 1000000001 | TPS 21333.4 | ETA 08:07:54
Time 04:26:40 | Step 375695473 / 1000000001 | TPS 21274.5 | ETA 08:09:05
Time 04:26:50 | Step 375908823 / 1000000001 | TPS 21334.8 | ETA 08:07:32
Time 04:27:00 | Step 376121448 / 1000000001 | TPS 21262.5 | ETA 08:09:01
Time 04:27:10 | Step 376333938 / 1000000001 | TPS 21249 | ETA 08:09:10
Time 04:27:20 | Step 376546289 / 1000000001 | TPS 21234.9 | ETA 08:09:19
Time 04:27:30 | Step 376758778 / 1000000001 | TPS 21248.9 | ETA 08:08:50
Time 04:27:40 | Step 376970878 / 1000000001 | TPS 21210 | ETA 08:09:34
Time 04:27:50 | Step 377183380 / 1000000001 | TPS 21250.2 | ETA 08:08:28
Time 04:28:00 | Step 377395297 / 1000000001 | TPS 21191.6 | ETA 08:09:39
Time 04:28:10 | Step 377607431 / 1000000001 | TPS 21213.2 | ETA 08:08:59
Time 04:28:20 | Step 377821047 / 1000000001 | TPS 21361.6 | ETA 08:05:26
Time 04:28:30 | Step 378034372 / 1000000001 | TPS 21332.5 | ETA 08:05:55
Time 04:28:40 | Step 378247111 / 1000000001 | TPS 21273.9 | ETA 08:07:06
Time 04:28:50 | Step 378460045 / 1000000001 | TPS 21293.3 | ETA 08:06:29
Time 04:29:00 | Step 378673077 / 1000000001 | TPS 21303.1 | ETA 08:06:05
Time 04:29:10 | Step 378885357 / 1000000001 | TPS 21227.9 | ETA 08:07:39
Time 04:29:20 | Step 379098458 / 1000000001 | TPS 21310 | ETA 08:05:36
Time 04:29:30 | Step 379311261 / 1000000001 | TPS 21280.3 | ETA 08:06:07
Time 04:29:40 | Step 379523968 / 1000000001 | TPS 21270.7 | ETA 08:06:10
Time 04:29:50 | Step 379735935 / 1000000001 | TPS 21196.6 | ETA 08:07:42
Time 04:30:00 | Step 379947894 / 1000000001 | TPS 21195.8 | ETA 08:07:33
Time 04:30:10 | Step 380161153 / 1000000001 | TPS 21325.9 | ETA 08:04:25
Time 04:30:20 | Step 380373713 / 1000000001 | TPS 21255.9 | ETA 08:05:50
Time 04:30:30 | Step 380585672 / 1000000001 | TPS 21195.9 | ETA 08:07:03
Time 04:30:40 | Step 380798053 / 1000000001 | TPS 21238.1 | ETA 08:05:55
Time 04:30:50 | Step 381011154 / 1000000001 | TPS 21310 | ETA 08:04:06
Time 04:31:00 | Step 381223853 / 1000000001 | TPS 21269.9 | ETA 08:04:51
Time 04:31:10 | Step 381436414 / 1000000001 | TPS 21256.1 | ETA 08:05:00
Time 04:31:20 | Step 381648776 / 1000000001 | TPS 21236.2 | ETA 08:05:17
Time 04:31:30 | Step 381862554 / 1000000001 | TPS 21377.8 | ETA 08:01:54
Time 04:31:40 | Step 382075993 / 1000000001 | TPS 21343.8 | ETA 08:02:30
Time 04:31:50 | Step 382288445 / 1000000001 | TPS 21245.1 | ETA 08:04:35
Time 04:32:00 | Step 382500425 / 1000000001 | TPS 21198 | ETA 08:05:30
Time 04:32:10 | Step 382714652 / 1000000001 | TPS 21422.6 | ETA 08:00:14
Time 04:32:20 | Step 382926612 / 1000000001 | TPS 21196 | ETA 08:05:12
Time 04:32:30 | Step 383140153 / 1000000001 | TPS 21354.1 | ETA 08:01:27
Time 04:32:40 | Step 383353986 / 1000000001 | TPS 21383.3 | ETA 08:00:37
Time 04:32:50 | Step 383567490 / 1000000001 | TPS 21350.3 | ETA 08:01:12
Time 04:33:00 | Step 383779935 / 1000000001 | TPS 21244.5 | ETA 08:03:26
Time 04:33:10 | Step 383994319 / 1000000001 | TPS 21438.4 | ETA 07:58:53
Time 04:33:20 | Step 384208510 / 1000000001 | TPS 21419.1 | ETA 07:59:09
Time 04:33:30 | Step 384421677 / 1000000001 | TPS 21316.7 | ETA 08:01:17
Time 04:33:40 | Step 384635078 / 1000000001 | TPS 21340 | ETA 08:00:36
Time 04:33:50 | Step 384847174 / 1000000001 | TPS 21209.4 | ETA 08:03:23
Time 04:34:00 | Step 385058126 / 1000000001 | TPS 21095.2 | ETA 08:05:50
Time 04:34:10 | Step 385270039 / 1000000001 | TPS 21191.3 | ETA 08:03:28
Time 04:34:20 | Step 385482365 / 1000000001 | TPS 21232.6 | ETA 08:02:22
Time 04:34:30 | Step 385694042 / 1000000001 | TPS 21167.6 | ETA 08:03:41
Time 04:34:40 | Step 385906192 / 1000000001 | TPS 21214.9 | ETA 08:02:26
Time 04:34:50 | Step 386117070 / 1000000001 | TPS 21087.8 | ETA 08:05:10
Time 04:35:00 | Step 386328653 / 1000000001 | TPS 21158.3 | ETA 08:03:23
Time 04:35:10 | Step 386540812 / 1000000001 | TPS 21215.7 | ETA 08:01:55
Time 04:35:20 | Step 386753269 / 1000000001 | TPS 21245.5 | ETA 08:01:04
Time 04:35:30 | Step 386965201 / 1000000001 | TPS 21192.9 | ETA 08:02:06
Time 04:35:40 | Step 387177162 / 1000000001 | TPS 21196.1 | ETA 08:01:52
Time 04:35:50 | Step 387388744 / 1000000001 | TPS 21158.2 | ETA 08:02:33
Time 04:36:00 | Step 387601181 / 1000000001 | TPS 21243.5 | ETA 08:00:27
Time 04:36:10 | Step 387815252 / 1000000001 | TPS 21407.1 | ETA 07:56:37
Time 04:36:20 | Step 388027614 / 1000000001 | TPS 21236.1 | ETA 08:00:17
Time 04:36:30 | Step 388241052 / 1000000001 | TPS 21343.8 | ETA 07:57:42
Time 04:36:40 | Step 388452988 / 1000000001 | TPS 21193.6 | ETA 08:00:55
Time 04:36:50 | Step 388664380 / 1000000001 | TPS 21139.2 | ETA 08:01:59
Time 04:37:00 | Step 388874964 / 1000000001 | TPS 21058.2 | ETA 08:03:40
Time 04:37:10 | Step 389086394 / 1000000001 | TPS 21142.9 | ETA 08:01:34
Time 04:37:20 | Step 389299596 / 1000000001 | TPS 21320.2 | ETA 07:57:24
Time 04:37:30 | Step 389513401 / 1000000001 | TPS 21380.3 | ETA 07:55:53
Time 04:37:40 | Step 389726850 / 1000000001 | TPS 21344.9 | ETA 07:56:31
Time 04:37:50 | Step 389940305 / 1000000001 | TPS 21345.5 | ETA 07:56:20
Time 04:38:00 | Step 390154128 / 1000000001 | TPS 21382.3 | ETA 07:55:21
Time 04:38:10 | Step 390367805 / 1000000001 | TPS 21367.6 | ETA 07:55:30
Time 04:38:20 | Step 390580435 / 1000000001 | TPS 21263 | ETA 07:57:41
Time 04:38:30 | Step 390792985 / 1000000001 | TPS 21254.9 | ETA 07:57:41
Time 04:38:40 | Step 391005386 / 1000000001 | TPS 21240.1 | ETA 07:57:51
Time 04:38:50 | Step 391216982 / 1000000001 | TPS 21159.6 | ETA 07:59:31
Time 04:39:00 | Step 391429970 / 1000000001 | TPS 21298.7 | ETA 07:56:13
Time 04:39:10 | Step 391642760 / 1000000001 | TPS 21279 | ETA 07:56:29
Time 04:39:20 | Step 391855167 / 1000000001 | TPS 21240.6 | ETA 07:57:11
Time 04:39:30 | Step 392067703 / 1000000001 | TPS 21253.5 | ETA 07:56:43
Time 04:39:40 | Step 392281184 / 1000000001 | TPS 21348.1 | ETA 07:54:27
Time 04:39:50 | Step 392494155 / 1000000001 | TPS 21297.1 | ETA 07:55:25
Time 04:40:00 | Step 392706348 / 1000000001 | TPS 21219.3 | ETA 07:56:59
Time 04:40:10 | Step 392916593 / 1000000001 | TPS 21024.4 | ETA 08:01:15
Time 04:40:20 | Step 393127614 / 1000000001 | TPS 21102 | ETA 07:59:18
Time 04:40:30 | Step 393340462 / 1000000001 | TPS 21284.7 | ETA 07:55:02
Time 04:40:40 | Step 393554033 / 1000000001 | TPS 21357 | ETA 07:53:15
Time 04:40:50 | Step 393767281 / 1000000001 | TPS 21324.8 | ETA 07:53:48
Time 04:41:00 | Step 393979013 / 1000000001 | TPS 21173.2 | ETA 07:57:02
Time 04:41:10 | Step 394191589 / 1000000001 | TPS 21257.5 | ETA 07:54:58
Time 04:41:20 | Step 394405322 / 1000000001 | TPS 21373.2 | ETA 07:52:14
Time 04:41:30 | Step 394617816 / 1000000001 | TPS 21249.4 | ETA 07:54:49
Time 04:41:40 | Step 394830869 / 1000000001 | TPS 21305.3 | ETA 07:53:24
Time 04:41:50 | Step 395043407 / 1000000001 | TPS 21253.8 | ETA 07:54:23
Time 04:42:00 | Step 395255413 / 1000000001 | TPS 21200.4 | ETA 07:55:25
Time 04:42:10 | Step 395467755 / 1000000001 | TPS 21234.1 | ETA 07:54:29
Time 04:42:20 | Step 395681392 / 1000000001 | TPS 21363.6 | ETA 07:51:27
Time 04:42:30 | Step 395894891 / 1000000001 | TPS 21349.9 | ETA 07:51:35
Time 04:42:40 | Step 396107178 / 1000000001 | TPS 21228.7 | ETA 07:54:07
Time 04:42:50 | Step 396320701 / 1000000001 | TPS 21352.2 | ETA 07:51:12
Time 04:43:00 | Step 396533517 / 1000000001 | TPS 21281.5 | ETA 07:52:36
Time 04:43:10 | Step 396747488 / 1000000001 | TPS 21397.1 | ETA 07:49:53
Time 04:43:20 | Step 396958731 / 1000000001 | TPS 21124.2 | ETA 07:55:47
Time 04:43:30 | Step 397170888 / 1000000001 | TPS 21215.6 | ETA 07:53:34
Time 04:43:40 | Step 397382504 / 1000000001 | TPS 21161.4 | ETA 07:54:37
Time 04:43:50 | Step 397596103 / 1000000001 | TPS 21359.9 | ETA 07:50:02
Time 04:44:00 | Step 397809940 / 1000000001 | TPS 21383.6 | ETA 07:49:21
Time 04:44:10 | Step 398023995 / 1000000001 | TPS 21405.4 | ETA 07:48:42
Time 04:44:20 | Step 398239386 / 1000000001 | TPS 21539 | ETA 07:45:38
Time 04:44:30 | Step 398453359 / 1000000001 | TPS 21397.2 | ETA 07:48:33
Time 04:44:40 | Step 398668104 / 1000000001 | TPS 21474.5 | ETA 07:46:42
Time 04:44:50 | Step 398883145 / 1000000001 | TPS 21504.1 | ETA 07:45:53
Time 04:45:00 | Step 399097571 / 1000000001 | TPS 21442.6 | ETA 07:47:03
Time 04:45:10 | Step 399310718 / 1000000001 | TPS 21314.7 | ETA 07:49:41
Time 04:45:20 | Step 399523919 / 1000000001 | TPS 21320.1 | ETA 07:49:24
Time 04:45:30 | Step 399737549 / 1000000001 | TPS 21362.9 | ETA 07:48:18
Time 04:45:40 | Step 399950735 / 1000000001 | TPS 21318.6 | ETA 07:49:06
Time 04:45:50 | Step 400161103 / 1000000001 | TPS 21036.7 | ETA 07:55:13
Time 04:46:00 | Step 400373901 / 1000000001 | TPS 21279.7 | ETA 07:49:38
Time 04:46:10 | Step 400586582 / 1000000001 | TPS 21268.1 | ETA 07:49:43
Time 04:46:20 | Step 400799136 / 1000000001 | TPS 21255.4 | ETA 07:49:50
Time 04:46:30 | Step 401014061 / 1000000001 | TPS 21492.5 | ETA 07:44:29
Time 04:46:40 | Step 401227395 / 1000000001 | TPS 21333.4 | ETA 07:47:47
Time 04:46:50 | Step 401439500 / 1000000001 | TPS 21210.5 | ETA 07:50:20
Time 04:47:00 | Step 401652648 / 1000000001 | TPS 21314.7 | ETA 07:47:52
Time 04:47:10 | Step 401865950 / 1000000001 | TPS 21330.1 | ETA 07:47:21
Time 04:47:20 | Step 402078685 / 1000000001 | TPS 21273.5 | ETA 07:48:26
Time 04:47:30 | Step 402291812 / 1000000001 | TPS 21312.7 | ETA 07:47:24
Time 04:47:40 | Step 402504740 / 1000000001 | TPS 21292.8 | ETA 07:47:40
Time 04:47:50 | Step 402716606 / 1000000001 | TPS 21186.5 | ETA 07:49:51
Time 04:48:00 | Step 402930019 / 1000000001 | TPS 21341.2 | ETA 07:46:17
Time 04:48:10 | Step 403143934 / 1000000001 | TPS 21391.3 | ETA 07:45:01
Time 04:48:20 | Step 403355732 / 1000000001 | TPS 21179.8 | ETA 07:49:30
Time 04:48:30 | Step 403568690 / 1000000001 | TPS 21295.8 | ETA 07:46:47
Time 04:48:40 | Step 403781002 / 1000000001 | TPS 21231.1 | ETA 07:48:02
Time 04:48:50 | Step 403994351 / 1000000001 | TPS 21334.8 | ETA 07:45:35
Time 04:49:00 | Step 404208669 / 1000000001 | TPS 21431.7 | ETA 07:43:19
Time 04:49:10 | Step 404421821 / 1000000001 | TPS 21315.1 | ETA 07:45:41
Time 04:49:20 | Step 404635923 / 1000000001 | TPS 21410.2 | ETA 07:43:27
Time 04:49:30 | Step 404850473 / 1000000001 | TPS 21454.9 | ETA 07:42:19
Time 04:49:40 | Step 405064190 / 1000000001 | TPS 21371.7 | ETA 07:43:57
Time 04:49:50 | Step 405278163 / 1000000001 | TPS 21397.1 | ETA 07:43:14
Time 04:50:00 | Step 405491267 / 1000000001 | TPS 21310.3 | ETA 07:44:57
Time 04:50:10 | Step 405704651 / 1000000001 | TPS 21338.3 | ETA 07:44:11
Time 04:50:20 | Step 405917139 / 1000000001 | TPS 21248.8 | ETA 07:45:58
Time 04:50:30 | Step 406130344 / 1000000001 | TPS 21320.5 | ETA 07:44:14
Time 04:50:40 | Step 406343545 / 1000000001 | TPS 21320.1 | ETA 07:44:04
Time 04:50:50 | Step 406556760 / 1000000001 | TPS 21321.4 | ETA 07:43:53
Time 04:51:00 | Step 406769242 / 1000000001 | TPS 21248.1 | ETA 07:45:19
Time 04:51:10 | Step 406981777 / 1000000001 | TPS 21253.4 | ETA 07:45:02
Time 04:51:20 | Step 407195985 / 1000000001 | TPS 21420.7 | ETA 07:41:14
Time 04:51:30 | Step 407409741 / 1000000001 | TPS 21375.6 | ETA 07:42:02
Time 04:51:40 | Step 407622716 / 1000000001 | TPS 21297.3 | ETA 07:43:34
Time 04:51:50 | Step 407834089 / 1000000001 | TPS 21137.1 | ETA 07:46:55
Time 04:52:00 | Step 408047104 / 1000000001 | TPS 21301.5 | ETA 07:43:09
Time 04:52:10 | Step 408260228 / 1000000001 | TPS 21312.4 | ETA 07:42:45
Time 04:52:20 | Step 408473077 / 1000000001 | TPS 21284.9 | ETA 07:43:10
Time 04:52:30 | Step 408684839 / 1000000001 | TPS 21176.1 | ETA 07:45:23
Time 04:52:40 | Step 408897137 / 1000000001 | TPS 21229.8 | ETA 07:44:03
Time 04:52:50 | Step 409110649 / 1000000001 | TPS 21351.1 | ETA 07:41:14
Time 04:53:00 | Step 409324479 / 1000000001 | TPS 21383 | ETA 07:40:23
Time 04:53:10 | Step 409536932 / 1000000001 | TPS 21245.3 | ETA 07:43:12
Time 04:53:20 | Step 409748749 / 1000000001 | TPS 21181.6 | ETA 07:44:26
Time 04:53:30 | Step 409961242 / 1000000001 | TPS 21249.3 | ETA 07:42:47
Time 04:53:40 | Step 410174224 / 1000000001 | TPS 21298.2 | ETA 07:41:33
Time 04:53:50 | Step 410387213 / 1000000001 | TPS 21298.8 | ETA 07:41:22
Time 04:54:00 | Step 410599971 / 1000000001 | TPS 21275.6 | ETA 07:41:43
Time 04:54:10 | Step 410812094 / 1000000001 | TPS 21212.2 | ETA 07:42:55
Time 04:54:20 | Step 411024040 / 1000000001 | TPS 21194.5 | ETA 07:43:09
Time 04:54:30 | Step 411236775 / 1000000001 | TPS 21273.4 | ETA 07:41:15
Time 04:54:40 | Step 411448504 / 1000000001 | TPS 21172.9 | ETA 07:43:17
Time 04:54:50 | Step 411662007 / 1000000001 | TPS 21350.2 | ETA 07:39:16
Time 04:55:00 | Step 411875509 / 1000000001 | TPS 21350.2 | ETA 07:39:06
Time 04:55:10 | Step 412088340 / 1000000001 | TPS 21283.1 | ETA 07:40:23
Time 04:55:20 | Step 412300706 / 1000000001 | TPS 21236.6 | ETA 07:41:13
Time 04:55:30 | Step 412513885 / 1000000001 | TPS 21317.8 | ETA 07:39:18
Time 04:55:40 | Step 412725199 / 1000000001 | TPS 21131.4 | ETA 07:43:11
Time 04:55:50 | Step 412938421 / 1000000001 | TPS 21322.2 | ETA 07:38:52
Time 04:56:00 | Step 413151843 / 1000000001 | TPS 21342.1 | ETA 07:38:17
Time 04:56:10 | Step 413365440 / 1000000001 | TPS 21359.5 | ETA 07:37:44
Time 04:56:20 | Step 413577757 / 1000000001 | TPS 21231.6 | ETA 07:40:20
Time 04:56:30 | Step 413791118 / 1000000001 | TPS 21336.1 | ETA 07:37:55
Time 04:56:40 | Step 414005001 / 1000000001 | TPS 21388.2 | ETA 07:36:38
Time 04:56:50 | Step 414218522 / 1000000001 | TPS 21352 | ETA 07:37:14
Time 04:57:00 | Step 414430738 / 1000000001 | TPS 21221.6 | ETA 07:39:53
Time 04:57:10 | Step 414643817 / 1000000001 | TPS 21307.9 | ETA 07:37:51
Time 04:57:20 | Step 414857332 / 1000000001 | TPS 21351.5 | ETA 07:36:45
Time 04:57:30 | Step 415071062 / 1000000001 | TPS 21373 | ETA 07:36:07
Time 04:57:40 | Step 415283613 / 1000000001 | TPS 21255.1 | ETA 07:38:29
Time 04:57:50 | Step 415495253 / 1000000001 | TPS 21164 | ETA 07:40:17
Time 04:58:00 | Step 415706881 / 1000000001 | TPS 21162.7 | ETA 07:40:09
Time 04:58:10 | Step 415919094 / 1000000001 | TPS 21221.1 | ETA 07:38:43
Time 04:58:20 | Step 416131311 / 1000000001 | TPS 21221.5 | ETA 07:38:33
Time 04:58:30 | Step 416343940 / 1000000001 | TPS 21262.8 | ETA 07:37:29
Time 04:58:40 | Step 416556828 / 1000000001 | TPS 21288.7 | ETA 07:36:46
Time 04:58:50 | Step 416769408 / 1000000001 | TPS 21257.9 | ETA 07:37:15
Time 04:59:00 | Step 416982298 / 1000000001 | TPS 21288.9 | ETA 07:36:25
Time 04:59:10 | Step 417195596 / 1000000001 | TPS 21329.8 | ETA 07:35:23
Time 04:59:20 | Step 417408315 / 1000000001 | TPS 21271.9 | ETA 07:36:27
Time 04:59:30 | Step 417622112 / 1000000001 | TPS 21379.6 | ETA 07:33:59
Time 04:59:40 | Step 417834547 / 1000000001 | TPS 21243.4 | ETA 07:36:44
Time 04:59:50 | Step 418046795 / 1000000001 | TPS 21224.8 | ETA 07:36:58
Time 05:00:00 | Step 418259900 / 1000000001 | TPS 21310.5 | ETA 07:34:58
slurmstepd: error: *** JOB 45294272 ON gh001 CANCELLED AT 2024-04-16T04:01:47 ***
