HOOMD-blue 2.9.6 CUDA (11.1) SINGLE SSE SSE2 
Compiled: 05/10/21
Copyright (c) 2009-2019 The Regents of the University of Michigan.
-----
You are using HOOMD-blue. Please cite the following:
* J A Anderson, J Glaser, and S C Glotzer. "HOOMD-blue: A Python package for
  high-performance molecular dynamics and hard particle Monte Carlo
  simulations", Computational Materials Science 173 (2020) 109363
-----
HOOMD-blue is running on the following GPU(s):
 [0] NVIDIA A100-SXM4-80GB 108 SM_8.0 @ 1.41 GHz, 81050 MiB DRAM, MNG
Running on the GPU
Charges (in mV) are:
[-30.0, 70.0]
[105.0, 85.0]
Particle types: ['N', 'P']
Radius of N, P and ionic radii(s):  [105.0, 85.0, 93.947]
radiusN: 105.0
radiusP: 85.0
Electrostatic prefactors are:  {('N', 'N'): 102.28291877424755, ('N', 'P'): -213.53718600187193, ('P', 'P'): 450.8024938568689}
Steric prefactors are:  {('N', 'N'): 407.15040790523716, ('N', 'P'): 368.3741785809289, ('P', 'P'): 329.59794925662055}
snapshot_creation.py:024  |      system=hoomd.init.read_gsd(inputfile,frame=-1)
notice(2): Group "all" created containing 6750 particles
snapshot_creation.py:025  |      snapshot = system.take_snapshot()
Particle types: Particle types: ['N', 'P']
Box size:
Box: Lx=13534.5 Ly=13534.5 Lz=13534.5 xy=0.0 xz=0.0 yz=0.0 dimensions=3
add_interactions.py:006  |  nl = hoomd.md.nlist.cell()
add_interactions.py:007  |  nl.reset_exclusions(exclusions = ['1-2', 'body','constraint'])
notice(2): -- Neighborlist exclusion statistics -- :
notice(2): Particles with 0 exclusions             : 6750
notice(2): Neighbors included by diameter          : no
notice(2): Neighbors excluded when in the same body: no
Turning on closed walls along x/y/z with max_z: 6767.25
add_interactions.py:032  |      wall_force = hoomd.md.wall.slj(wall_group,r_cut=max_radius*(2.0**(1.0/6.0)))
notice(2): Notice: slj set d_max=210.0
add_interactions.py:033  |      wall_force.force_coeff.set('N',epsilon=1,sigma=radiusN,alpha=0,r_cut=radiusN*(2.0**(1.0/6.0)))
add_interactions.py:034  |      wall_force.force_coeff.set('P',epsilon=1,sigma=radiusP,alpha=0,r_cut=radiusP*(2.0**(1.0/6.0)))
add_interactions.py:057  |  table = hoomd.md.pair.table(width=5000,nlist=nl)
*******************************************************************************************************************************************************************************
Setting potential for pair ('N', 'N') with radius_sum 210.0
add_interactions.py:080  |          table.pair_coeff.set(typei,typej, func=screened_potential_shifted_force,rmin=1.00005*radius_sum, rmax=potential_range,coeff=dict(radius_sum=radius_sum, steric_prefactor=steric_prefactors[key],electrostatic_prefactor=electrostatic_prefactors[key],H=sum_brush_lengths,d=debye_length),)
*******************************************************************************************************************************************************************************
Setting potential for pair ('N', 'P') with radius_sum 190.0
add_interactions.py:080  |          table.pair_coeff.set(typei,typej, func=screened_potential_shifted_force,rmin=1.00005*radius_sum, rmax=potential_range,coeff=dict(radius_sum=radius_sum, steric_prefactor=steric_prefactors[key],electrostatic_prefactor=electrostatic_prefactors[key],H=sum_brush_lengths,d=debye_length),)
*******************************************************************************************************************************************************************************
Setting potential for pair ('P', 'P') with radius_sum 170.0
add_interactions.py:080  |          table.pair_coeff.set(typei,typej, func=screened_potential_shifted_force,rmin=1.00005*radius_sum, rmax=potential_range,coeff=dict(radius_sum=radius_sum, steric_prefactor=steric_prefactors[key],electrostatic_prefactor=electrostatic_prefactors[key],H=sum_brush_lengths,d=debye_length),)
i,j,key,potential_min, potential_min_location
(0, 0, ('N', 'N'), -8.470329472543003e-22, 318.28399999999573)
(0, 1, ('N', 'P'), -6.30003822949128, 208.5894041999891)
(1, 1, ('P', 'P'), -3.3881317890172014e-21, 278.2840000000191)
run_dlvo_spheres_metal.py:011  |  all = hoomd.group.all()
run_dlvo_spheres_metal.py:000  |  from add_interactions import *

if temperature.find(':')>0:
    temp_list = np.array( temperature.split(':') ,dtype=float)
    assert len(temp_list)%2==0 and len(temp_list)>=0,"must give an even number of temperature arguments"
    temp_list = [tuple(x) for x in temp_list.reshape((-1,2))]
    temperature = hoomd.variant.linear_interp(points=temp_list)
else:
    temperature = float(temperature)

all = hoomd.group.all()


hoomd.analyze.log(filename=outputlogfile,
mode: langevin
run_dlvo_spheres_metal.py:029  |      hoomd.md.integrate.mode_standard(dt=dt)
run_dlvo_spheres_metal.py:030  |      ld=hoomd.md.integrate.langevin(group=all, kT=temperature, seed=seed)
notice(2): integrate.langevin/bd is using specified gamma values
Using gamma value as: 0.001
run_dlvo_spheres_metal.py:033  |          ld.set_gamma(particle_type,gamma)
run_dlvo_spheres_metal.py:033  |          ld.set_gamma(particle_type,gamma)
run_dlvo_spheres_metal.py:057  |  hoomd.dump.gsd(outputgsdfile, period=dump_frequency, group=all, overwrite=True,dynamic=['attribute','momentum','topology'])
run_dlvo_spheres_metal.py:058  |  hoomd.run(nsteps)
** starting run **
Time 00:00:11 | Step 418185712 / 1418000001 | TPS 18571.2 | ETA 14:57:16
Time 00:00:21 | Step 418378812 / 1418000001 | TPS 19310 | ETA 14:22:47
Time 00:00:31 | Step 418571878 / 1418000001 | TPS 19306.5 | ETA 14:22:46
Time 00:00:41 | Step 418764974 / 1418000001 | TPS 19309.5 | ETA 14:22:28
Time 00:00:51 | Step 418957910 / 1418000001 | TPS 19293.6 | ETA 14:23:01
Time 00:01:01 | Step 419150456 / 1418000001 | TPS 19254.6 | ETA 14:24:35
Time 00:01:11 | Step 419342844 / 1418000001 | TPS 19238.7 | ETA 14:25:08
Time 00:01:21 | Step 419535473 / 1418000001 | TPS 19262.9 | ETA 14:23:53
Time 00:01:31 | Step 419729036 / 1418000001 | TPS 19356.3 | ETA 14:19:33
Time 00:01:41 | Step 419921601 / 1418000001 | TPS 19256.4 | ETA 14:23:50
Time 00:01:51 | Step 420114318 / 1418000001 | TPS 19271.7 | ETA 14:22:59
Time 00:02:01 | Step 420306691 / 1418000001 | TPS 19237.2 | ETA 14:24:22
Time 00:02:11 | Step 420499535 / 1418000001 | TPS 19284.3 | ETA 14:22:05
Time 00:02:21 | Step 420691764 / 1418000001 | TPS 19222.8 | ETA 14:24:41
Time 00:02:31 | Step 420883623 / 1418000001 | TPS 19185.9 | ETA 14:26:11
Time 00:02:41 | Step 421076350 / 1418000001 | TPS 19272.5 | ETA 14:22:07
Time 00:02:51 | Step 421269449 / 1418000001 | TPS 19309.8 | ETA 14:20:17
Time 00:03:01 | Step 421462382 / 1418000001 | TPS 19293.2 | ETA 14:20:52
Time 00:03:11 | Step 421655647 / 1418000001 | TPS 19326.4 | ETA 14:19:13
Time 00:03:21 | Step 421847320 / 1418000001 | TPS 19167.2 | ETA 14:26:11
Time 00:03:31 | Step 422040400 / 1418000001 | TPS 19308 | ETA 14:19:42
Time 00:03:41 | Step 422233323 / 1418000001 | TPS 19292.2 | ETA 14:20:14
Time 00:03:51 | Step 422425861 / 1418000001 | TPS 19253.7 | ETA 14:21:48
Time 00:04:01 | Step 422618372 / 1418000001 | TPS 19250.9 | ETA 14:21:45
Time 00:04:11 | Step 422811735 / 1418000001 | TPS 19336.2 | ETA 14:17:47
Time 00:04:21 | Step 423004864 / 1418000001 | TPS 19312.8 | ETA 14:18:39
Time 00:04:31 | Step 423197743 / 1418000001 | TPS 19287.9 | ETA 14:19:36
Time 00:04:41 | Step 423390448 / 1418000001 | TPS 19270.4 | ETA 14:20:13
Time 00:04:51 | Step 423583201 / 1418000001 | TPS 19275.1 | ETA 14:19:50
Time 00:05:01 | Step 423776202 / 1418000001 | TPS 19300 | ETA 14:18:34
Time 00:05:11 | Step 423969651 / 1418000001 | TPS 19344.9 | ETA 14:16:24
Time 00:05:21 | Step 424162552 / 1418000001 | TPS 19290.1 | ETA 14:18:40
Time 00:05:31 | Step 424354742 / 1418000001 | TPS 19218.8 | ETA 14:21:41
Time 00:05:41 | Step 424547542 / 1418000001 | TPS 19279.9 | ETA 14:18:47
Time 00:05:51 | Step 424741452 / 1418000001 | TPS 19390.9 | ETA 14:13:43
Time 00:06:01 | Step 424934928 / 1418000001 | TPS 19347.5 | ETA 14:15:27
Time 00:06:11 | Step 425128568 / 1418000001 | TPS 19364 | ETA 14:14:34
Time 00:06:21 | Step 425321700 / 1418000001 | TPS 19313 | ETA 14:16:39
Time 00:06:31 | Step 425515054 / 1418000001 | TPS 19335.3 | ETA 14:15:30
Time 00:06:41 | Step 425707788 / 1418000001 | TPS 19273.2 | ETA 14:18:05
Time 00:06:51 | Step 425900059 / 1418000001 | TPS 19227 | ETA 14:19:59
Time 00:07:01 | Step 426092257 / 1418000001 | TPS 19219.7 | ETA 14:20:08
Time 00:07:11 | Step 426285153 / 1418000001 | TPS 19289.6 | ETA 14:16:51
Time 00:07:21 | Step 426477814 / 1418000001 | TPS 19266.1 | ETA 14:17:44
Time 00:07:31 | Step 426670551 / 1418000001 | TPS 19273.6 | ETA 14:17:14
Time 00:07:41 | Step 426863844 / 1418000001 | TPS 19329.2 | ETA 14:14:36
Time 00:07:51 | Step 427057828 / 1418000001 | TPS 19398.3 | ETA 14:11:23
Time 00:08:01 | Step 427251240 / 1418000001 | TPS 19341.1 | ETA 14:13:44
Time 00:08:11 | Step 427443843 / 1418000001 | TPS 19260.3 | ETA 14:17:10
Time 00:08:21 | Step 427637224 / 1418000001 | TPS 19337.9 | ETA 14:13:33
Time 00:08:31 | Step 427831508 / 1418000001 | TPS 19428.3 | ETA 14:09:25
Time 00:08:41 | Step 428025503 / 1418000001 | TPS 19399.4 | ETA 14:10:31
Time 00:08:51 | Step 428218240 / 1418000001 | TPS 19273.6 | ETA 14:15:54
Time 00:09:01 | Step 428410892 / 1418000001 | TPS 19265.1 | ETA 14:16:06
Time 00:09:11 | Step 428603653 / 1418000001 | TPS 19276 | ETA 14:15:27
Time 00:09:21 | Step 428796217 / 1418000001 | TPS 19256.3 | ETA 14:16:10
Time 00:09:31 | Step 428989072 / 1418000001 | TPS 19285.4 | ETA 14:14:42
Time 00:09:41 | Step 429181566 / 1418000001 | TPS 19249.4 | ETA 14:16:08
Time 00:09:51 | Step 429374496 / 1418000001 | TPS 19292.9 | ETA 14:14:02
Time 00:10:01 | Step 429566450 / 1418000001 | TPS 19195.4 | ETA 14:18:13
Time 00:10:11 | Step 429757943 / 1418000001 | TPS 19149.2 | ETA 14:20:07
Time 00:10:21 | Step 429950034 / 1418000001 | TPS 19209 | ETA 14:17:16
Time 00:10:31 | Step 430142425 / 1418000001 | TPS 19238.9 | ETA 14:15:46
Time 00:10:41 | Step 430334802 / 1418000001 | TPS 19237.7 | ETA 14:15:40
Time 00:10:51 | Step 430527059 / 1418000001 | TPS 19225.7 | ETA 14:16:02
Time 00:11:01 | Step 430719392 / 1418000001 | TPS 19233.2 | ETA 14:15:32
Time 00:11:11 | Step 430911774 / 1418000001 | TPS 19238.1 | ETA 14:15:08
Time 00:11:21 | Step 431103942 / 1418000001 | TPS 19216.7 | ETA 14:15:56
Time 00:11:31 | Step 431296842 / 1418000001 | TPS 19289.9 | ETA 14:12:31
Time 00:11:41 | Step 431489458 / 1418000001 | TPS 19261.5 | ETA 14:13:36
Time 00:11:51 | Step 431682262 / 1418000001 | TPS 19280.3 | ETA 14:12:36
Time 00:12:01 | Step 431875433 / 1418000001 | TPS 19317 | ETA 14:10:49
Time 00:12:11 | Step 432068690 / 1418000001 | TPS 19325.7 | ETA 14:10:16
Time 00:12:21 | Step 432261954 / 1418000001 | TPS 19326.3 | ETA 14:10:04
Time 00:12:31 | Step 432455019 / 1418000001 | TPS 19306.5 | ETA 14:10:47
Time 00:12:41 | Step 432648014 / 1418000001 | TPS 19299.4 | ETA 14:10:56
Time 00:12:51 | Step 432841033 / 1418000001 | TPS 19301.8 | ETA 14:10:39
Time 00:13:01 | Step 433034225 / 1418000001 | TPS 19319.1 | ETA 14:09:43
Time 00:13:11 | Step 433226739 / 1418000001 | TPS 19251.4 | ETA 14:12:33
Time 00:13:21 | Step 433419531 / 1418000001 | TPS 19279.2 | ETA 14:11:09
Time 00:13:31 | Step 433612454 / 1418000001 | TPS 19292.2 | ETA 14:10:25
Time 00:13:41 | Step 433805900 / 1418000001 | TPS 19344.6 | ETA 14:07:57
Time 00:13:51 | Step 433999726 / 1418000001 | TPS 19382.6 | ETA 14:06:07
Time 00:14:01 | Step 434193068 / 1418000001 | TPS 19334 | ETA 14:08:04
Time 00:14:11 | Step 434386523 / 1418000001 | TPS 19345.4 | ETA 14:07:24
Time 00:14:21 | Step 434579337 / 1418000001 | TPS 19281.2 | ETA 14:10:04
Time 00:14:31 | Step 434772969 / 1418000001 | TPS 19363.1 | ETA 14:06:18
Time 00:14:41 | Step 434966263 / 1418000001 | TPS 19329.3 | ETA 14:07:37
Time 00:14:51 | Step 435160021 / 1418000001 | TPS 19375.8 | ETA 14:05:25
Time 00:15:01 | Step 435353919 / 1418000001 | TPS 19389.7 | ETA 14:04:38
Time 00:15:11 | Step 435546693 / 1418000001 | TPS 19277.3 | ETA 14:09:24
Time 00:15:21 | Step 435740946 / 1418000001 | TPS 19425.2 | ETA 14:02:46
Time 00:15:31 | Step 435934399 / 1418000001 | TPS 19345.2 | ETA 14:06:05
Time 00:15:41 | Step 436128391 / 1418000001 | TPS 19399.2 | ETA 14:03:34
Time 00:15:51 | Step 436321254 / 1418000001 | TPS 19286.3 | ETA 14:08:20
Time 00:16:01 | Step 436514765 / 1418000001 | TPS 19351 | ETA 14:05:20
Time 00:16:11 | Step 436706677 / 1418000001 | TPS 19191.2 | ETA 14:12:12
Time 00:16:21 | Step 436898436 / 1418000001 | TPS 19175.8 | ETA 14:12:43
Time 00:16:31 | Step 437091467 / 1418000001 | TPS 19303 | ETA 14:06:56
Time 00:16:41 | Step 437284682 / 1418000001 | TPS 19321.4 | ETA 14:05:57
Time 00:16:51 | Step 437477529 / 1418000001 | TPS 19284.7 | ETA 14:07:24
Time 00:17:01 | Step 437670422 / 1418000001 | TPS 19289.3 | ETA 14:07:02
Time 00:17:11 | Step 437863074 / 1418000001 | TPS 19265.1 | ETA 14:07:56
Time 00:17:21 | Step 438055809 / 1418000001 | TPS 19273.4 | ETA 14:07:24
Time 00:17:31 | Step 438249195 / 1418000001 | TPS 19338.6 | ETA 14:04:23
Time 00:17:41 | Step 438442502 / 1418000001 | TPS 19330.7 | ETA 14:04:33
Time 00:17:51 | Step 438635906 / 1418000001 | TPS 19340.4 | ETA 14:03:58
Time 00:18:01 | Step 438828381 / 1418000001 | TPS 19247.4 | ETA 14:07:52
Time 00:18:11 | Step 439021042 / 1418000001 | TPS 19266.1 | ETA 14:06:53
Time 00:18:21 | Step 439213913 / 1418000001 | TPS 19287.1 | ETA 14:05:48
Time 00:18:31 | Step 439406982 / 1418000001 | TPS 19306.8 | ETA 14:04:46
Time 00:18:41 | Step 439600888 / 1418000001 | TPS 19390.5 | ETA 14:00:57
Time 00:18:51 | Step 439794257 / 1418000001 | TPS 19336.9 | ETA 14:03:07
Time 00:19:01 | Step 439988623 / 1418000001 | TPS 19436.6 | ETA 13:58:38
Time 00:19:11 | Step 440182598 / 1418000001 | TPS 19397.4 | ETA 14:00:09
Time 00:19:21 | Step 440376411 / 1418000001 | TPS 19381.3 | ETA 14:00:41
Time 00:19:31 | Step 440570977 / 1418000001 | TPS 19456.6 | ETA 13:57:16
Time 00:19:41 | Step 440765002 / 1418000001 | TPS 19402.5 | ETA 13:59:26
Time 00:19:51 | Step 440958177 / 1418000001 | TPS 19317.4 | ETA 14:02:58
Time 00:20:01 | Step 441151690 / 1418000001 | TPS 19351.3 | ETA 14:01:19
Time 00:20:11 | Step 441344905 / 1418000001 | TPS 19321.3 | ETA 14:02:28
Time 00:20:21 | Step 441537634 / 1418000001 | TPS 19272.8 | ETA 14:04:25
Time 00:20:31 | Step 441730669 / 1418000001 | TPS 19303.4 | ETA 14:02:54
Time 00:20:41 | Step 441923564 / 1418000001 | TPS 19289.4 | ETA 14:03:21
Time 00:20:51 | Step 442116902 / 1418000001 | TPS 19333.8 | ETA 14:01:15
Time 00:21:01 | Step 442311695 / 1418000001 | TPS 19479.3 | ETA 13:54:48
Time 00:21:11 | Step 442505961 / 1418000001 | TPS 19426.6 | ETA 13:56:54
Time 00:21:21 | Step 442699892 / 1418000001 | TPS 19393 | ETA 13:58:11
Time 00:21:31 | Step 442893443 / 1418000001 | TPS 19355 | ETA 13:59:40
Time 00:21:41 | Step 443085575 / 1418000001 | TPS 19213.2 | ETA 14:05:41
Time 00:21:51 | Step 443278915 / 1418000001 | TPS 19334 | ETA 14:00:14
Time 00:22:01 | Step 443471743 / 1418000001 | TPS 19282.7 | ETA 14:02:18
Time 00:22:11 | Step 443664895 / 1418000001 | TPS 19315.2 | ETA 14:00:44
Time 00:22:21 | Step 443857730 / 1418000001 | TPS 19283.4 | ETA 14:01:57
Time 00:22:31 | Step 444051013 / 1418000001 | TPS 19328.2 | ETA 13:59:49
Time 00:22:41 | Step 444245230 / 1418000001 | TPS 19421.6 | ETA 13:55:37
Time 00:22:51 | Step 444438601 / 1418000001 | TPS 19337 | ETA 13:59:07
Time 00:23:01 | Step 444631896 / 1418000001 | TPS 19329.4 | ETA 13:59:16
Time 00:23:11 | Step 444824889 / 1418000001 | TPS 19299.3 | ETA 14:00:25
Time 00:23:21 | Step 445018279 / 1418000001 | TPS 19338.9 | ETA 13:58:32
Time 00:23:31 | Step 445210544 / 1418000001 | TPS 19226.5 | ETA 14:03:16
Time 00:23:41 | Step 445403146 / 1418000001 | TPS 19260.2 | ETA 14:01:37
Time 00:23:51 | Step 445596081 / 1418000001 | TPS 19293.5 | ETA 14:00:00
Time 00:24:01 | Step 445789549 / 1418000001 | TPS 19346.8 | ETA 13:57:31
Time 00:24:11 | Step 445983374 / 1418000001 | TPS 19382.4 | ETA 13:55:49
Time 00:24:21 | Step 446175830 / 1418000001 | TPS 19245.6 | ETA 14:01:36
Time 00:24:31 | Step 446368644 / 1418000001 | TPS 19281.4 | ETA 13:59:52
Time 00:24:41 | Step 446561274 / 1418000001 | TPS 19262.9 | ETA 14:00:30
Time 00:24:51 | Step 446753793 / 1418000001 | TPS 19251.8 | ETA 14:00:49
Time 00:25:01 | Step 446946846 / 1418000001 | TPS 19305.3 | ETA 13:58:19
Time 00:25:11 | Step 447139889 / 1418000001 | TPS 19304.2 | ETA 13:58:12
Time 00:25:21 | Step 447333048 / 1418000001 | TPS 19315.9 | ETA 13:57:32
Time 00:25:31 | Step 447525786 / 1418000001 | TPS 19273.7 | ETA 13:59:12
Time 00:25:41 | Step 447718642 / 1418000001 | TPS 19285.5 | ETA 13:58:31
Time 00:25:51 | Step 447912273 / 1418000001 | TPS 19363.1 | ETA 13:54:59
Time 00:26:01 | Step 448105650 / 1418000001 | TPS 19337.6 | ETA 13:55:55
Time 00:26:11 | Step 448298269 / 1418000001 | TPS 19261.9 | ETA 13:59:03
Time 00:26:21 | Step 448490797 / 1418000001 | TPS 19252.6 | ETA 13:59:17
Time 00:26:31 | Step 448683382 / 1418000001 | TPS 19258.5 | ETA 13:58:51
Time 00:26:41 | Step 448875585 / 1418000001 | TPS 19220.2 | ETA 14:00:22
Time 00:26:51 | Step 449068860 / 1418000001 | TPS 19327.4 | ETA 13:55:32
Time 00:27:01 | Step 449262353 / 1418000001 | TPS 19349.2 | ETA 13:54:25
Time 00:27:11 | Step 449455429 / 1418000001 | TPS 19307.5 | ETA 13:56:04
Time 00:27:21 | Step 449648609 / 1418000001 | TPS 19317.9 | ETA 13:55:27
Time 00:27:31 | Step 449842581 / 1418000001 | TPS 19397.2 | ETA 13:51:52
Time 00:27:41 | Step 450035701 / 1418000001 | TPS 19311.9 | ETA 13:55:22
Time 00:27:51 | Step 450228880 / 1418000001 | TPS 19317.9 | ETA 13:54:57
Time 00:28:01 | Step 450421962 / 1418000001 | TPS 19308.2 | ETA 13:55:12
Time 00:28:11 | Step 450614101 / 1418000001 | TPS 19213.9 | ETA 13:59:08
Time 00:28:21 | Step 450808448 / 1418000001 | TPS 19434.6 | ETA 13:49:26
Time 00:28:31 | Step 451002363 / 1418000001 | TPS 19391.5 | ETA 13:51:07
Time 00:28:41 | Step 451195397 / 1418000001 | TPS 19303.3 | ETA 13:54:44
Time 00:28:51 | Step 451388587 / 1418000001 | TPS 19319 | ETA 13:53:54
Time 00:29:01 | Step 451581233 / 1418000001 | TPS 19264.6 | ETA 13:56:05
Time 00:29:11 | Step 451773928 / 1418000001 | TPS 19269.5 | ETA 13:55:42
Time 00:29:21 | Step 451966490 / 1418000001 | TPS 19256.2 | ETA 13:56:07
Time 00:29:31 | Step 452159232 / 1418000001 | TPS 19274.1 | ETA 13:55:10
Time 00:29:41 | Step 452351345 / 1418000001 | TPS 19211.3 | ETA 13:57:44
Time 00:29:51 | Step 452544922 / 1418000001 | TPS 19357.6 | ETA 13:51:14
Time 00:30:01 | Step 452738405 / 1418000001 | TPS 19348.2 | ETA 13:51:28
Time 00:30:11 | Step 452932805 / 1418000001 | TPS 19439.9 | ETA 13:47:23
Time 00:30:21 | Step 453125036 / 1418000001 | TPS 19223.1 | ETA 13:56:33
Time 00:30:31 | Step 453317355 / 1418000001 | TPS 19231.8 | ETA 13:56:00
Time 00:30:41 | Step 453510301 / 1418000001 | TPS 19294.5 | ETA 13:53:07
Time 00:30:51 | Step 453704160 / 1418000001 | TPS 19385.9 | ETA 13:49:02
Time 00:31:01 | Step 453897678 / 1418000001 | TPS 19351.7 | ETA 13:50:19
Time 00:31:11 | Step 454089987 / 1418000001 | TPS 19230.8 | ETA 13:55:23
Time 00:31:21 | Step 454282795 / 1418000001 | TPS 19280.7 | ETA 13:53:03
Time 00:31:31 | Step 454476393 / 1418000001 | TPS 19359.7 | ETA 13:49:29
Time 00:31:41 | Step 454670190 / 1418000001 | TPS 19379.6 | ETA 13:48:28
Time 00:31:51 | Step 454863399 / 1418000001 | TPS 19320.8 | ETA 13:50:49
Time 00:32:01 | Step 455055898 / 1418000001 | TPS 19249.8 | ETA 13:53:43
Time 00:32:11 | Step 455248549 / 1418000001 | TPS 19265.1 | ETA 13:52:53
Time 00:32:21 | Step 455441292 / 1418000001 | TPS 19274.2 | ETA 13:52:20
Time 00:32:31 | Step 455635291 / 1418000001 | TPS 19399.9 | ETA 13:46:46
Time 00:32:41 | Step 455828786 / 1418000001 | TPS 19349.4 | ETA 13:48:46
Time 00:32:51 | Step 456021169 / 1418000001 | TPS 19238.3 | ETA 13:53:23
Time 00:33:01 | Step 456213947 / 1418000001 | TPS 19277.8 | ETA 13:51:30
Time 00:33:11 | Step 456407047 / 1418000001 | TPS 19310 | ETA 13:49:57
Time 00:33:21 | Step 456600040 / 1418000001 | TPS 19299.3 | ETA 13:50:15
Time 00:33:31 | Step 456792679 / 1418000001 | TPS 19263.9 | ETA 13:51:36
Time 00:33:41 | Step 456985702 / 1418000001 | TPS 19302.3 | ETA 13:49:47
Time 00:33:51 | Step 457179379 / 1418000001 | TPS 19367.6 | ETA 13:46:49
Time 00:34:01 | Step 457373253 / 1418000001 | TPS 19387.3 | ETA 13:45:49
Time 00:34:11 | Step 457566952 / 1418000001 | TPS 19369.9 | ETA 13:46:23
Time 00:34:21 | Step 457760757 / 1418000001 | TPS 19380.4 | ETA 13:45:46
Time 00:34:31 | Step 457954461 / 1418000001 | TPS 19370.3 | ETA 13:46:02
Time 00:34:41 | Step 458146343 / 1418000001 | TPS 19188.1 | ETA 13:53:43
Time 00:34:51 | Step 458339297 / 1418000001 | TPS 19295.2 | ETA 13:48:55
Time 00:35:01 | Step 458532146 / 1418000001 | TPS 19284.8 | ETA 13:49:12
Time 00:35:11 | Step 458725657 / 1418000001 | TPS 19351.1 | ETA 13:46:12
Time 00:35:21 | Step 458918289 / 1418000001 | TPS 19263.2 | ETA 13:49:48
Time 00:35:31 | Step 459111645 / 1418000001 | TPS 19335.5 | ETA 13:46:32
Time 00:35:41 | Step 459304613 / 1418000001 | TPS 19296.8 | ETA 13:48:01
Time 00:35:51 | Step 459498215 / 1418000001 | TPS 19360.2 | ETA 13:45:08
Time 00:36:01 | Step 459691477 / 1418000001 | TPS 19326.1 | ETA 13:46:26
Time 00:36:11 | Step 459884803 / 1418000001 | TPS 19332.5 | ETA 13:45:59
Time 00:36:21 | Step 460078200 / 1418000001 | TPS 19339.7 | ETA 13:45:31
Time 00:36:31 | Step 460271904 / 1418000001 | TPS 19370.3 | ETA 13:44:03
Time 00:36:41 | Step 460465317 / 1418000001 | TPS 19341.3 | ETA 13:45:07
Time 00:36:51 | Step 460658249 / 1418000001 | TPS 19293.2 | ETA 13:47:00
Time 00:37:01 | Step 460851652 / 1418000001 | TPS 19340.3 | ETA 13:44:49
Time 00:37:11 | Step 461044307 / 1418000001 | TPS 19265.4 | ETA 13:47:52
Time 00:37:21 | Step 461237668 / 1418000001 | TPS 19336.1 | ETA 13:44:40
Time 00:37:31 | Step 461431069 / 1418000001 | TPS 19340 | ETA 13:44:20
Time 00:37:41 | Step 461624728 / 1418000001 | TPS 19365.8 | ETA 13:43:04
Time 00:37:51 | Step 461819258 / 1418000001 | TPS 19453 | ETA 13:39:13
Time 00:38:01 | Step 462013344 / 1418000001 | TPS 19408.5 | ETA 13:40:56
Time 00:38:11 | Step 462207692 / 1418000001 | TPS 19434.8 | ETA 13:39:39
Time 00:38:21 | Step 462401030 / 1418000001 | TPS 19333.7 | ETA 13:43:46
Time 00:38:31 | Step 462594981 / 1418000001 | TPS 19395.1 | ETA 13:41:00
Time 00:38:41 | Step 462789451 / 1418000001 | TPS 19446.9 | ETA 13:38:38
Time 00:38:51 | Step 462983413 / 1418000001 | TPS 19396 | ETA 13:40:37
Time 00:39:01 | Step 463177753 / 1418000001 | TPS 19433.9 | ETA 13:38:51
Time 00:39:11 | Step 463370165 / 1418000001 | TPS 19241.1 | ETA 13:46:54
Time 00:39:21 | Step 463563911 / 1418000001 | TPS 19374.6 | ETA 13:41:02
Time 00:39:31 | Step 463758172 / 1418000001 | TPS 19426 | ETA 13:38:41
Time 00:39:41 | Step 463952394 / 1418000001 | TPS 19422.2 | ETA 13:38:41
Time 00:39:51 | Step 464145387 / 1418000001 | TPS 19299.3 | ETA 13:43:44
Time 00:40:01 | Step 464337807 / 1418000001 | TPS 19241.9 | ETA 13:46:01
Time 00:40:11 | Step 464530576 / 1418000001 | TPS 19276.8 | ETA 13:44:21
Time 00:40:21 | Step 464724335 / 1418000001 | TPS 19375.9 | ETA 13:39:59
Time 00:40:31 | Step 464918574 / 1418000001 | TPS 19423.8 | ETA 13:37:47
Time 00:40:41 | Step 465112689 / 1418000001 | TPS 19411.5 | ETA 13:38:08
Time 00:40:51 | Step 465306101 / 1418000001 | TPS 19341.2 | ETA 13:40:57
Time 00:41:01 | Step 465499073 / 1418000001 | TPS 19297.2 | ETA 13:42:39
Time 00:41:11 | Step 465692151 / 1418000001 | TPS 19307.8 | ETA 13:42:02
Time 00:41:21 | Step 465885477 / 1418000001 | TPS 19332.6 | ETA 13:40:49
Time 00:41:31 | Step 466079508 / 1418000001 | TPS 19403.1 | ETA 13:37:40
Time 00:41:41 | Step 466274370 / 1418000001 | TPS 19486.1 | ETA 13:34:01
Time 00:41:51 | Step 466468476 / 1418000001 | TPS 19410.6 | ETA 13:37:01
Time 00:42:01 | Step 466662371 / 1418000001 | TPS 19389.4 | ETA 13:37:44
Time 00:42:11 | Step 466855414 / 1418000001 | TPS 19304.3 | ETA 13:41:11
Time 00:42:21 | Step 467047799 / 1418000001 | TPS 19238.5 | ETA 13:43:49
Time 00:42:31 | Step 467239536 / 1418000001 | TPS 19173.7 | ETA 13:46:26
Time 00:42:41 | Step 467431852 / 1418000001 | TPS 19231.6 | ETA 13:43:47
Time 00:42:51 | Step 467625397 / 1418000001 | TPS 19354.4 | ETA 13:38:23
Time 00:43:01 | Step 467819114 / 1418000001 | TPS 19371.7 | ETA 13:37:29
Time 00:43:11 | Step 468011996 / 1418000001 | TPS 19288.2 | ETA 13:40:52
Time 00:43:21 | Step 468205179 / 1418000001 | TPS 19318.3 | ETA 13:39:25
Time 00:43:31 | Step 468398533 / 1418000001 | TPS 19335.3 | ETA 13:38:32
Time 00:43:41 | Step 468592887 / 1418000001 | TPS 19435.3 | ETA 13:34:09
Time 00:43:51 | Step 468787183 / 1418000001 | TPS 19429.5 | ETA 13:34:14
Time 00:44:01 | Step 468980662 / 1418000001 | TPS 19347.7 | ETA 13:37:30
Time 00:44:11 | Step 469174879 / 1418000001 | TPS 19421.7 | ETA 13:34:13
Time 00:44:21 | Step 469368479 / 1418000001 | TPS 19360 | ETA 13:36:39
Time 00:44:31 | Step 469561727 / 1418000001 | TPS 19324.7 | ETA 13:37:58
Time 00:44:41 | Step 469755622 / 1418000001 | TPS 19389.4 | ETA 13:35:05
Time 00:44:51 | Step 469949476 / 1418000001 | TPS 19385.3 | ETA 13:35:05
Time 00:45:01 | Step 470143338 / 1418000001 | TPS 19386.2 | ETA 13:34:53
Time 00:45:11 | Step 470336919 / 1418000001 | TPS 19358 | ETA 13:35:54
Time 00:45:21 | Step 470530495 / 1418000001 | TPS 19357.5 | ETA 13:35:45
Time 00:45:31 | Step 470724348 / 1418000001 | TPS 19385.2 | ETA 13:34:25
Time 00:45:41 | Step 470917933 / 1418000001 | TPS 19358.4 | ETA 13:35:23
Time 00:45:51 | Step 471111329 / 1418000001 | TPS 19339.6 | ETA 13:36:01
Time 00:46:01 | Step 471305649 / 1418000001 | TPS 19432 | ETA 13:31:58
Time 00:46:11 | Step 471499803 / 1418000001 | TPS 19415.3 | ETA 13:32:30
Time 00:46:21 | Step 471693117 / 1418000001 | TPS 19331.4 | ETA 13:35:51
Time 00:46:31 | Step 471887790 / 1418000001 | TPS 19467.3 | ETA 13:30:00
Time 00:46:41 | Step 472082299 / 1418000001 | TPS 19450.8 | ETA 13:30:31
Time 00:46:51 | Step 472276611 / 1418000001 | TPS 19431.2 | ETA 13:31:10
Time 00:47:01 | Step 472470690 / 1418000001 | TPS 19407.8 | ETA 13:31:58
Time 00:47:11 | Step 472665191 / 1418000001 | TPS 19450 | ETA 13:30:03
Time 00:47:21 | Step 472859100 / 1418000001 | TPS 19390.8 | ETA 13:32:21
Time 00:47:31 | Step 473053423 / 1418000001 | TPS 19432.3 | ETA 13:30:27
Time 00:47:41 | Step 473246749 / 1418000001 | TPS 19332.6 | ETA 13:34:28
Time 00:47:51 | Step 473440395 / 1418000001 | TPS 19364.6 | ETA 13:32:57
Time 00:48:01 | Step 473634685 / 1418000001 | TPS 19428.9 | ETA 13:30:06
Time 00:48:11 | Step 473828929 / 1418000001 | TPS 19424.3 | ETA 13:30:07
Time 00:48:21 | Step 474021858 / 1418000001 | TPS 19292.8 | ETA 13:35:28
Time 00:48:31 | Step 474215641 / 1418000001 | TPS 19378.2 | ETA 13:31:43
Time 00:48:41 | Step 474409201 / 1418000001 | TPS 19355.6 | ETA 13:32:30
Time 00:48:51 | Step 474602872 / 1418000001 | TPS 19367.1 | ETA 13:31:51
Time 00:49:01 | Step 474796212 / 1418000001 | TPS 19333.9 | ETA 13:33:04
Time 00:49:11 | Step 474989375 / 1418000001 | TPS 19316.2 | ETA 13:33:39
Time 00:49:21 | Step 475182608 / 1418000001 | TPS 19323.2 | ETA 13:33:11
Time 00:49:31 | Step 475376026 / 1418000001 | TPS 19341.8 | ETA 13:32:15
Time 00:49:41 | Step 475569452 / 1418000001 | TPS 19342.5 | ETA 13:32:03
Time 00:49:51 | Step 475763696 / 1418000001 | TPS 19424.4 | ETA 13:28:27
Time 00:50:01 | Step 475958124 / 1418000001 | TPS 19442.8 | ETA 13:27:32
Time 00:50:11 | Step 476152568 / 1418000001 | TPS 19444.4 | ETA 13:27:18
Time 00:50:21 | Step 476345648 / 1418000001 | TPS 19308 | ETA 13:32:50
Time 00:50:31 | Step 476537637 / 1418000001 | TPS 19198.9 | ETA 13:37:17
Time 00:50:41 | Step 476730897 / 1418000001 | TPS 19325.9 | ETA 13:31:45
Time 00:50:51 | Step 476924643 / 1418000001 | TPS 19374.6 | ETA 13:29:32
Time 00:51:01 | Step 477118702 / 1418000001 | TPS 19405.9 | ETA 13:28:04
Time 00:51:11 | Step 477312777 / 1418000001 | TPS 19407.5 | ETA 13:27:50
Time 00:51:21 | Step 477506777 / 1418000001 | TPS 19400 | ETA 13:27:59
Time 00:51:31 | Step 477699508 / 1418000001 | TPS 19273.1 | ETA 13:33:08
Time 00:51:41 | Step 477893218 / 1418000001 | TPS 19370.9 | ETA 13:28:51
Time 00:51:51 | Step 478086363 / 1418000001 | TPS 19314.5 | ETA 13:31:03
Time 00:52:01 | Step 478279956 / 1418000001 | TPS 19359.2 | ETA 13:29:01
Time 00:52:11 | Step 478473402 / 1418000001 | TPS 19344.5 | ETA 13:29:28
Time 00:52:21 | Step 478666333 / 1418000001 | TPS 19293 | ETA 13:31:27
Time 00:52:31 | Step 478859194 / 1418000001 | TPS 19286.1 | ETA 13:31:35
Time 00:52:41 | Step 479052830 / 1418000001 | TPS 19363.6 | ETA 13:28:10
Time 00:52:51 | Step 479245529 / 1418000001 | TPS 19269.9 | ETA 13:31:56
Time 00:53:01 | Step 479438534 / 1418000001 | TPS 19300.4 | ETA 13:30:29
Time 00:53:11 | Step 479631838 / 1418000001 | TPS 19330.4 | ETA 13:29:03
Time 00:53:21 | Step 479824749 / 1418000001 | TPS 19291 | ETA 13:30:32
Time 00:53:31 | Step 480017197 / 1418000001 | TPS 19244.6 | ETA 13:32:19
Time 00:53:41 | Step 480210518 / 1418000001 | TPS 19332.1 | ETA 13:28:29
Time 00:53:51 | Step 480404581 / 1418000001 | TPS 19406.1 | ETA 13:25:14
Time 00:54:01 | Step 480598535 / 1418000001 | TPS 19395.3 | ETA 13:25:31
Time 00:54:11 | Step 480792190 / 1418000001 | TPS 19365.4 | ETA 13:26:35
Time 00:54:21 | Step 480986346 / 1418000001 | TPS 19415.5 | ETA 13:24:21
Time 00:54:31 | Step 481180150 / 1418000001 | TPS 19380.4 | ETA 13:25:38
Time 00:54:41 | Step 481374402 / 1418000001 | TPS 19425.1 | ETA 13:23:37
Time 00:54:51 | Step 481568801 / 1418000001 | TPS 19439.9 | ETA 13:22:50
Time 00:55:01 | Step 481763213 / 1418000001 | TPS 19441.1 | ETA 13:22:37
Time 00:55:11 | Step 481957129 / 1418000001 | TPS 19391.5 | ETA 13:24:30
Time 00:55:21 | Step 482151180 / 1418000001 | TPS 19405 | ETA 13:23:47
Time 00:55:31 | Step 482345542 / 1418000001 | TPS 19436.1 | ETA 13:22:19
Time 00:55:41 | Step 482540158 / 1418000001 | TPS 19461.6 | ETA 13:21:07
Time 00:55:51 | Step 482734398 / 1418000001 | TPS 19424 | ETA 13:22:30
Time 00:56:01 | Step 482928698 / 1418000001 | TPS 19430 | ETA 13:22:05
Time 00:56:11 | Step 483122568 / 1418000001 | TPS 19386.9 | ETA 13:23:42
Time 00:56:21 | Step 483315410 / 1418000001 | TPS 19284.2 | ETA 13:27:49
Time 00:56:31 | Step 483509075 / 1418000001 | TPS 19366.4 | ETA 13:24:13
Time 00:56:41 | Step 483703325 / 1418000001 | TPS 19424.9 | ETA 13:21:37
Time 00:56:51 | Step 483897463 / 1418000001 | TPS 19413.8 | ETA 13:21:55
Time 00:57:01 | Step 484091540 / 1418000001 | TPS 19407.6 | ETA 13:22:00
Time 00:57:11 | Step 484286012 / 1418000001 | TPS 19447 | ETA 13:20:13
Time 00:57:21 | Step 484479551 / 1418000001 | TPS 19353.9 | ETA 13:23:54
Time 00:57:31 | Step 484673301 / 1418000001 | TPS 19375 | ETA 13:22:51
Time 00:57:41 | Step 484867437 / 1418000001 | TPS 19413.5 | ETA 13:21:06
Time 00:57:51 | Step 485061518 / 1418000001 | TPS 19408.1 | ETA 13:21:09
Time 00:58:01 | Step 485255312 / 1418000001 | TPS 19379.3 | ETA 13:22:11
Time 00:58:11 | Step 485448312 / 1418000001 | TPS 19299.8 | ETA 13:25:19
Time 00:58:21 | Step 485641587 / 1418000001 | TPS 19327.5 | ETA 13:24:00
Time 00:58:31 | Step 485836147 / 1418000001 | TPS 19455.9 | ETA 13:18:31
Time 00:58:41 | Step 486030822 / 1418000001 | TPS 19467.4 | ETA 13:17:53
Time 00:58:51 | Step 486224587 / 1418000001 | TPS 19376.4 | ETA 13:21:28
Time 00:59:01 | Step 486417593 / 1418000001 | TPS 19300.6 | ETA 13:24:27
Time 00:59:11 | Step 486610542 / 1418000001 | TPS 19294.8 | ETA 13:24:31
Time 00:59:21 | Step 486804644 / 1418000001 | TPS 19410.2 | ETA 13:19:34
Time 00:59:31 | Step 486998392 / 1418000001 | TPS 19374.8 | ETA 13:20:52
Time 00:59:41 | Step 487192709 / 1418000001 | TPS 19431.6 | ETA 13:18:21
Time 00:59:51 | Step 487387109 / 1418000001 | TPS 19439.9 | ETA 13:17:51
Time 01:00:01 | Step 487581431 / 1418000001 | TPS 19432.1 | ETA 13:18:00
Time 01:00:11 | Step 487775764 / 1418000001 | TPS 19433.2 | ETA 13:17:47
Time 01:00:21 | Step 487969286 / 1418000001 | TPS 19352.2 | ETA 13:20:58
Time 01:00:31 | Step 488162203 / 1418000001 | TPS 19291.6 | ETA 13:23:18
Time 01:00:41 | Step 488355859 / 1418000001 | TPS 19365.5 | ETA 13:20:05
Time 01:00:51 | Step 488549551 / 1418000001 | TPS 19369.1 | ETA 13:19:46
Time 01:01:01 | Step 488743220 / 1418000001 | TPS 19366.9 | ETA 13:19:41
Time 01:01:11 | Step 488936775 / 1418000001 | TPS 19355.5 | ETA 13:20:00
Time 01:01:21 | Step 489129632 / 1418000001 | TPS 19285.7 | ETA 13:22:43
Time 01:01:31 | Step 489322519 / 1418000001 | TPS 19288.7 | ETA 13:22:26
Time 01:01:41 | Step 489515798 / 1418000001 | TPS 19327.9 | ETA 13:20:38
Time 01:01:51 | Step 489709317 / 1418000001 | TPS 19351.9 | ETA 13:19:28
Time 01:02:01 | Step 489902477 / 1418000001 | TPS 19316 | ETA 13:20:48
Time 01:02:11 | Step 490096605 / 1418000001 | TPS 19412.8 | ETA 13:16:38
Time 01:02:21 | Step 490290463 / 1418000001 | TPS 19385.8 | ETA 13:17:35
Time 01:02:31 | Step 490484786 / 1418000001 | TPS 19432.1 | ETA 13:15:31
Time 01:02:41 | Step 490678110 / 1418000001 | TPS 19332.4 | ETA 13:19:27
Time 01:02:51 | Step 490872117 / 1418000001 | TPS 19400.6 | ETA 13:16:28
Time 01:03:01 | Step 491066753 / 1418000001 | TPS 19463.5 | ETA 13:13:44
Time 01:03:11 | Step 491261310 / 1418000001 | TPS 19455.7 | ETA 13:13:53
Time 01:03:21 | Step 491455774 / 1418000001 | TPS 19446.4 | ETA 13:14:06
Time 01:03:31 | Step 491650564 / 1418000001 | TPS 19479 | ETA 13:12:36
Time 01:03:41 | Step 491844874 / 1418000001 | TPS 19431 | ETA 13:14:23
Time 01:03:51 | Step 492039261 / 1418000001 | TPS 19438.7 | ETA 13:13:54
Time 01:04:01 | Step 492233100 / 1418000001 | TPS 19383.9 | ETA 13:15:59
Time 01:04:11 | Step 492426936 / 1418000001 | TPS 19383.5 | ETA 13:15:50
Time 01:04:21 | Step 492621003 / 1418000001 | TPS 19406.7 | ETA 13:14:43
Time 01:04:31 | Step 492814861 / 1418000001 | TPS 19385.6 | ETA 13:15:25
Time 01:04:41 | Step 493009422 / 1418000001 | TPS 19455.9 | ETA 13:12:22
Time 01:04:51 | Step 493203753 / 1418000001 | TPS 19433.1 | ETA 13:13:08
Time 01:05:01 | Step 493397902 / 1418000001 | TPS 19414.8 | ETA 13:13:43
Time 01:05:11 | Step 493592093 / 1418000001 | TPS 19419 | ETA 13:13:23
Time 01:05:21 | Step 493786716 / 1418000001 | TPS 19462.1 | ETA 13:11:27
Time 01:05:31 | Step 493981058 / 1418000001 | TPS 19434.2 | ETA 13:12:26
Time 01:05:41 | Step 494175334 / 1418000001 | TPS 19427.6 | ETA 13:12:32
Time 01:05:51 | Step 494369430 / 1418000001 | TPS 19409.6 | ETA 13:13:06
Time 01:06:01 | Step 494563629 / 1418000001 | TPS 19419.8 | ETA 13:12:31
Time 01:06:11 | Step 494757862 / 1418000001 | TPS 19423.2 | ETA 13:12:12
Time 01:06:21 | Step 494951697 / 1418000001 | TPS 19383.4 | ETA 13:13:40
Time 01:06:31 | Step 495144513 / 1418000001 | TPS 19281.6 | ETA 13:17:41
Time 01:06:41 | Step 495337263 / 1418000001 | TPS 19274.9 | ETA 13:17:48
Time 01:06:51 | Step 495529834 / 1418000001 | TPS 19257.1 | ETA 13:18:22
Time 01:07:01 | Step 495722156 / 1418000001 | TPS 19232.2 | ETA 13:19:14
Time 01:07:11 | Step 495914866 / 1418000001 | TPS 19270.9 | ETA 13:17:28
Time 01:07:21 | Step 496107787 / 1418000001 | TPS 19292.1 | ETA 13:16:26
Time 01:07:31 | Step 496300766 / 1418000001 | TPS 19297.9 | ETA 13:16:01
Time 01:07:41 | Step 496494154 / 1418000001 | TPS 19338.8 | ETA 13:14:10
Time 01:07:51 | Step 496688726 / 1418000001 | TPS 19457 | ETA 13:09:11
Time 01:08:01 | Step 496882260 / 1418000001 | TPS 19353.4 | ETA 13:13:14
Time 01:08:11 | Step 497076424 / 1418000001 | TPS 19416.4 | ETA 13:10:30
Time 01:08:21 | Step 497269500 / 1418000001 | TPS 19307.6 | ETA 13:14:47
Time 01:08:31 | Step 497463105 / 1418000001 | TPS 19360.3 | ETA 13:12:27
Time 01:08:41 | Step 497656440 / 1418000001 | TPS 19333.5 | ETA 13:13:23
Time 01:08:51 | Step 497849567 / 1418000001 | TPS 19312.7 | ETA 13:14:04
Time 01:09:01 | Step 498042309 / 1418000001 | TPS 19274.2 | ETA 13:15:30
Time 01:09:11 | Step 498236145 / 1418000001 | TPS 19383.6 | ETA 13:10:50
Time 01:09:21 | Step 498429145 / 1418000001 | TPS 19299.9 | ETA 13:14:06
Time 01:09:31 | Step 498621833 / 1418000001 | TPS 19268.8 | ETA 13:15:13
Time 01:09:41 | Step 498814731 / 1418000001 | TPS 19289.8 | ETA 13:14:11
Time 01:09:51 | Step 499007885 / 1418000001 | TPS 19315.3 | ETA 13:12:58
Time 01:10:01 | Step 499201889 / 1418000001 | TPS 19400.4 | ETA 13:09:19
Time 01:10:11 | Step 499394935 / 1418000001 | TPS 19304.5 | ETA 13:13:04
Time 01:10:21 | Step 499587712 / 1418000001 | TPS 19277.7 | ETA 13:14:01
Time 01:10:31 | Step 499780730 / 1418000001 | TPS 19301.8 | ETA 13:12:51
Time 01:10:41 | Step 499972993 / 1418000001 | TPS 19226.2 | ETA 13:15:48
Time 01:10:51 | Step 500166088 / 1418000001 | TPS 19309.4 | ETA 13:12:12
Time 01:11:01 | Step 500359703 / 1418000001 | TPS 19361.4 | ETA 13:09:55
Time 01:11:11 | Step 500553621 / 1418000001 | TPS 19391.7 | ETA 13:08:31
Time 01:11:21 | Step 500748092 / 1418000001 | TPS 19447.1 | ETA 13:06:06
Time 01:11:31 | Step 500942835 / 1418000001 | TPS 19474.3 | ETA 13:04:50
Time 01:11:41 | Step 501137327 / 1418000001 | TPS 19449.1 | ETA 13:05:41
Time 01:11:51 | Step 501330985 / 1418000001 | TPS 19365.7 | ETA 13:08:54
Time 01:12:01 | Step 501524565 / 1418000001 | TPS 19358 | ETA 13:09:03
Time 01:12:11 | Step 501718880 / 1418000001 | TPS 19431.5 | ETA 13:05:54
Time 01:12:21 | Step 501913247 / 1418000001 | TPS 19436.7 | ETA 13:05:31
Time 01:12:31 | Step 502107768 / 1418000001 | TPS 19452 | ETA 13:04:44
Time 01:12:41 | Step 502302289 / 1418000001 | TPS 19452 | ETA 13:04:34
Time 01:12:51 | Step 502496690 / 1418000001 | TPS 19440.1 | ETA 13:04:53
Time 01:13:01 | Step 502691232 / 1418000001 | TPS 19454.2 | ETA 13:04:09
Time 01:13:11 | Step 502884254 / 1418000001 | TPS 19302.1 | ETA 13:10:10
Time 01:13:21 | Step 503077040 / 1418000001 | TPS 19278.6 | ETA 13:10:57
Time 01:13:31 | Step 503271833 / 1418000001 | TPS 19479.2 | ETA 13:02:39
Time 01:13:41 | Step 503466307 / 1418000001 | TPS 19447.4 | ETA 13:03:46
Time 01:13:51 | Step 503660944 / 1418000001 | TPS 19463.6 | ETA 13:02:56
Time 01:14:01 | Step 503855208 / 1418000001 | TPS 19426.3 | ETA 13:04:17
Time 01:14:11 | Step 504049388 / 1418000001 | TPS 19417.9 | ETA 13:04:27
Time 01:14:21 | Step 504243708 / 1418000001 | TPS 19431.9 | ETA 13:03:43
Time 01:14:31 | Step 504437283 / 1418000001 | TPS 19357.5 | ETA 13:06:34
Time 01:14:41 | Step 504630341 / 1418000001 | TPS 19305.8 | ETA 13:08:30
Time 01:14:51 | Step 504823783 / 1418000001 | TPS 19344.1 | ETA 13:06:46
Time 01:15:01 | Step 505018458 / 1418000001 | TPS 19467.5 | ETA 13:01:37
Time 01:15:11 | Step 505213054 / 1418000001 | TPS 19459.6 | ETA 13:01:46
Time 01:15:21 | Step 505407423 / 1418000001 | TPS 19436.8 | ETA 13:02:31
Time 01:15:31 | Step 505602061 / 1418000001 | TPS 19463.8 | ETA 13:01:16
Time 01:15:41 | Step 505796545 / 1418000001 | TPS 19448.3 | ETA 13:01:43
Time 01:15:51 | Step 505991077 / 1418000001 | TPS 19453.1 | ETA 13:01:22
Time 01:16:01 | Step 506184978 / 1418000001 | TPS 19390 | ETA 13:03:45
Time 01:16:11 | Step 506379295 / 1418000001 | TPS 19431.7 | ETA 13:01:54
Time 01:16:21 | Step 506572975 / 1418000001 | TPS 19367.9 | ETA 13:04:18
Time 01:16:31 | Step 506766909 / 1418000001 | TPS 19393.3 | ETA 13:03:06
Time 01:16:41 | Step 506961345 / 1418000001 | TPS 19443.5 | ETA 13:00:55
Time 01:16:51 | Step 507154196 / 1418000001 | TPS 19285.1 | ETA 13:07:10
Time 01:17:01 | Step 507346756 / 1418000001 | TPS 19256 | ETA 13:08:12
Time 01:17:11 | Step 507540090 / 1418000001 | TPS 19333.3 | ETA 13:04:52
Time 01:17:21 | Step 507733713 / 1418000001 | TPS 19362.2 | ETA 13:03:32
Time 01:17:31 | Step 507926587 / 1418000001 | TPS 19287.2 | ETA 13:06:25
Time 01:17:41 | Step 508119182 / 1418000001 | TPS 19259.4 | ETA 13:07:23
Time 01:17:51 | Step 508313570 / 1418000001 | TPS 19438.7 | ETA 12:59:57
Time 01:18:01 | Step 508507893 / 1418000001 | TPS 19432.2 | ETA 13:00:03
Time 01:18:11 | Step 508701694 / 1418000001 | TPS 19380 | ETA 13:01:59
Time 01:18:21 | Step 508895028 / 1418000001 | TPS 19333.4 | ETA 13:03:42
Time 01:18:31 | Step 509089375 / 1418000001 | TPS 19434.7 | ETA 12:59:27
Time 01:18:41 | Step 509283748 / 1418000001 | TPS 19437.3 | ETA 12:59:11
Time 01:18:51 | Step 509477938 / 1418000001 | TPS 19419 | ETA 12:59:45
Time 01:19:01 | Step 509672432 / 1418000001 | TPS 19449.4 | ETA 12:58:22
Time 01:19:11 | Step 509865662 / 1418000001 | TPS 19322.9 | ETA 13:03:17
Time 01:19:21 | Step 510060417 / 1418000001 | TPS 19475.5 | ETA 12:56:59
Time 01:19:31 | Step 510255013 / 1418000001 | TPS 19459.6 | ETA 12:57:27
Time 01:19:41 | Step 510449718 / 1418000001 | TPS 19470.4 | ETA 12:56:51
Time 01:19:51 | Step 510643212 / 1418000001 | TPS 19349.3 | ETA 13:01:33
Time 01:20:01 | Step 510837481 / 1418000001 | TPS 19426.9 | ETA 12:58:16
Time 01:20:11 | Step 511031113 / 1418000001 | TPS 19363 | ETA 13:00:40
Time 01:20:21 | Step 511224635 / 1418000001 | TPS 19352.2 | ETA 13:00:56
Time 01:20:31 | Step 511418896 / 1418000001 | TPS 19426.1 | ETA 12:57:48
Time 01:20:41 | Step 511613604 / 1418000001 | TPS 19470.8 | ETA 12:55:51
Time 01:20:51 | Step 511808267 / 1418000001 | TPS 19466.2 | ETA 12:55:51
Time 01:21:01 | Step 512002706 / 1418000001 | TPS 19443.9 | ETA 12:56:35
Time 01:21:11 | Step 512196655 / 1418000001 | TPS 19394.9 | ETA 12:58:23
Time 01:21:21 | Step 512390314 / 1418000001 | TPS 19365.8 | ETA 12:59:23
Time 01:21:31 | Step 512584551 / 1418000001 | TPS 19423.7 | ETA 12:56:54
Time 01:21:41 | Step 512779485 / 1418000001 | TPS 19493.3 | ETA 12:53:57
Time 01:21:51 | Step 512974046 / 1418000001 | TPS 19455.9 | ETA 12:55:16
Time 01:22:01 | Step 513168531 / 1418000001 | TPS 19448.4 | ETA 12:55:24
Time 01:22:11 | Step 513362893 / 1418000001 | TPS 19436.1 | ETA 12:55:44
Time 01:22:21 | Step 513557610 / 1418000001 | TPS 19471.6 | ETA 12:54:09
Time 01:22:31 | Step 513752248 / 1418000001 | TPS 19463.8 | ETA 12:54:17
Time 01:22:41 | Step 513946688 / 1418000001 | TPS 19443.9 | ETA 12:54:55
Time 01:22:51 | Step 514140725 / 1418000001 | TPS 19403.7 | ETA 12:56:21
Time 01:23:01 | Step 514334702 / 1418000001 | TPS 19397.6 | ETA 12:56:26
Time 01:23:11 | Step 514529422 / 1418000001 | TPS 19471.9 | ETA 12:53:18
Time 01:23:21 | Step 514724091 / 1418000001 | TPS 19466.8 | ETA 12:53:20
Time 01:23:31 | Step 514918934 / 1418000001 | TPS 19484.2 | ETA 12:52:29
Time 01:23:41 | Step 515113417 / 1418000001 | TPS 19448.2 | ETA 12:53:45
Time 01:23:51 | Step 515308059 / 1418000001 | TPS 19464.1 | ETA 12:52:57
Time 01:24:01 | Step 515502597 / 1418000001 | TPS 19453.7 | ETA 12:53:12
Time 01:24:11 | Step 515695728 / 1418000001 | TPS 19313.1 | ETA 12:58:39
Time 01:24:21 | Step 515889292 / 1418000001 | TPS 19356.4 | ETA 12:56:45
Time 01:24:31 | Step 516082654 / 1418000001 | TPS 19336.2 | ETA 12:57:24
Time 01:24:41 | Step 516277143 / 1418000001 | TPS 19448.9 | ETA 12:52:43
Time 01:24:51 | Step 516471370 / 1418000001 | TPS 19422.6 | ETA 12:53:36
Time 01:25:01 | Step 516665626 / 1418000001 | TPS 19425.5 | ETA 12:53:19
Time 01:25:11 | Step 516860480 / 1418000001 | TPS 19485.3 | ETA 12:50:47
Time 01:25:21 | Step 517054092 / 1418000001 | TPS 19361.2 | ETA 12:55:33
Time 01:25:31 | Step 517248322 / 1418000001 | TPS 19423 | ETA 12:52:55
Time 01:25:41 | Step 517442055 / 1418000001 | TPS 19373.2 | ETA 12:54:44
Time 01:25:51 | Step 517635013 / 1418000001 | TPS 19295.8 | ETA 12:57:41
Time 01:26:01 | Step 517828384 / 1418000001 | TPS 19337 | ETA 12:55:51
Time 01:26:11 | Step 518021421 / 1418000001 | TPS 19303.6 | ETA 12:57:02
Time 01:26:21 | Step 518214865 / 1418000001 | TPS 19344.4 | ETA 12:55:14
Time 01:26:31 | Step 518408986 / 1418000001 | TPS 19411.9 | ETA 12:52:22
Time 01:26:41 | Step 518603861 / 1418000001 | TPS 19487.4 | ETA 12:49:12
Time 01:26:51 | Step 518798475 / 1418000001 | TPS 19461.3 | ETA 12:50:04
Time 01:27:01 | Step 518992893 / 1418000001 | TPS 19441.7 | ETA 12:50:41
Time 01:27:11 | Step 519187374 / 1418000001 | TPS 19448.1 | ETA 12:50:16
Time 01:27:21 | Step 519381914 / 1418000001 | TPS 19453.9 | ETA 12:49:52
Time 01:27:31 | Step 519575929 / 1418000001 | TPS 19401.5 | ETA 12:51:46
Time 01:27:41 | Step 519769586 / 1418000001 | TPS 19365.7 | ETA 12:53:02
Time 01:27:51 | Step 519961547 / 1418000001 | TPS 19196 | ETA 12:59:42
Time 01:28:01 | Step 520154492 / 1418000001 | TPS 19294.5 | ETA 12:55:33
Time 01:28:11 | Step 520347417 / 1418000001 | TPS 19292.5 | ETA 12:55:28
Time 01:28:21 | Step 520540859 / 1418000001 | TPS 19344.2 | ETA 12:53:14
Time 01:28:31 | Step 520733192 / 1418000001 | TPS 19233.2 | ETA 12:57:31
Time 01:28:41 | Step 520925200 / 1418000001 | TPS 19200.7 | ETA 12:58:40
Time 01:28:51 | Step 521117785 / 1418000001 | TPS 19258.4 | ETA 12:56:10
Time 01:29:01 | Step 521310642 / 1418000001 | TPS 19285.7 | ETA 12:54:55
Time 01:29:11 | Step 521503201 / 1418000001 | TPS 19255.6 | ETA 12:55:57
Time 01:29:21 | Step 521695938 / 1418000001 | TPS 19273.7 | ETA 12:55:04
Time 01:29:31 | Step 521889060 / 1418000001 | TPS 19312.2 | ETA 12:53:21
Time 01:29:41 | Step 522082890 / 1418000001 | TPS 19383 | ETA 12:50:21
Time 01:29:51 | Step 522277049 / 1418000001 | TPS 19415.9 | ETA 12:48:53
Time 01:30:01 | Step 522470969 / 1418000001 | TPS 19392 | ETA 12:49:40
Time 01:30:11 | Step 522665027 / 1418000001 | TPS 19405.7 | ETA 12:48:57
Time 01:30:21 | Step 522857861 / 1418000001 | TPS 19283.4 | ETA 12:53:40
Time 01:30:31 | Step 523050710 / 1418000001 | TPS 19284.8 | ETA 12:53:27
Time 01:30:41 | Step 523243388 / 1418000001 | TPS 19267.8 | ETA 12:53:57
Time 01:30:51 | Step 523435750 / 1418000001 | TPS 19236.2 | ETA 12:55:04
Time 01:31:01 | Step 523628506 / 1418000001 | TPS 19275.6 | ETA 12:53:19
Time 01:31:11 | Step 523821603 / 1418000001 | TPS 19309.7 | ETA 12:51:47
Time 01:31:21 | Step 524014331 / 1418000001 | TPS 19272.7 | ETA 12:53:06
Time 01:31:31 | Step 524207693 / 1418000001 | TPS 19336.2 | ETA 12:50:23
Time 01:31:41 | Step 524401170 / 1418000001 | TPS 19347.7 | ETA 12:49:46
Time 01:31:51 | Step 524594098 / 1418000001 | TPS 19292.7 | ETA 12:51:47
Time 01:32:01 | Step 524787097 / 1418000001 | TPS 19299.8 | ETA 12:51:20
Time 01:32:11 | Step 524981638 / 1418000001 | TPS 19454 | ETA 12:45:04
Time 01:32:21 | Step 525175604 / 1418000001 | TPS 19396.5 | ETA 12:47:10
Time 01:32:31 | Step 525370308 / 1418000001 | TPS 19470.3 | ETA 12:44:05
Time 01:32:41 | Step 525564743 / 1418000001 | TPS 19443.4 | ETA 12:44:59
Time 01:32:51 | Step 525759170 / 1418000001 | TPS 19442.7 | ETA 12:44:50
Time 01:33:01 | Step 525952676 / 1418000001 | TPS 19350.5 | ETA 12:48:19
Time 01:33:11 | Step 526146221 / 1418000001 | TPS 19354.5 | ETA 12:47:59
Time 01:33:21 | Step 526339769 / 1418000001 | TPS 19354.7 | ETA 12:47:49
Time 01:33:31 | Step 526534128 / 1418000001 | TPS 19435.9 | ETA 12:44:27
Time 01:33:41 | Step 526728066 / 1418000001 | TPS 19393.7 | ETA 12:45:56
Time 01:33:51 | Step 526921590 / 1418000001 | TPS 19352.4 | ETA 12:47:24
Time 01:34:01 | Step 527115213 / 1418000001 | TPS 19362.2 | ETA 12:46:51
Time 01:34:11 | Step 527309105 / 1418000001 | TPS 19389.1 | ETA 12:45:37
Time 01:34:21 | Step 527502862 / 1418000001 | TPS 19375.6 | ETA 12:45:59
Time 01:34:31 | Step 527696934 / 1418000001 | TPS 19407.2 | ETA 12:44:34
Time 01:34:41 | Step 527890930 / 1418000001 | TPS 19399.5 | ETA 12:44:43
Time 01:34:51 | Step 528085087 / 1418000001 | TPS 19415.6 | ETA 12:43:54
Time 01:35:01 | Step 528278013 / 1418000001 | TPS 19292.5 | ETA 12:48:37
Time 01:35:11 | Step 528470910 / 1418000001 | TPS 19289.7 | ETA 12:48:34
Time 01:35:21 | Step 528664001 / 1418000001 | TPS 19309.1 | ETA 12:47:37
Time 01:35:31 | Step 528857001 / 1418000001 | TPS 19300 | ETA 12:47:49
Time 01:35:41 | Step 529050188 / 1418000001 | TPS 19318.7 | ETA 12:46:55
Time 01:35:51 | Step 529243333 / 1418000001 | TPS 19314.3 | ETA 12:46:55
Time 01:36:01 | Step 529436476 / 1418000001 | TPS 19314.2 | ETA 12:46:45
Time 01:36:11 | Step 529630212 / 1418000001 | TPS 19373.5 | ETA 12:44:14
Time 01:36:21 | Step 529822801 / 1418000001 | TPS 19258.9 | ETA 12:48:37
Time 01:36:31 | Step 530015695 / 1418000001 | TPS 19289.4 | ETA 12:47:14
Time 01:36:41 | Step 530208720 / 1418000001 | TPS 19302.4 | ETA 12:46:33
Time 01:36:51 | Step 530402021 / 1418000001 | TPS 19330.1 | ETA 12:45:17
Time 01:37:01 | Step 530595957 / 1418000001 | TPS 19393.5 | ETA 12:42:37
Time 01:37:11 | Step 530788299 / 1418000001 | TPS 19234.2 | ETA 12:48:46
Time 01:37:21 | Step 530982234 / 1418000001 | TPS 19393.4 | ETA 12:42:18
Time 01:37:31 | Step 531174945 / 1418000001 | TPS 19271.1 | ETA 12:46:58
Time 01:37:41 | Step 531368375 / 1418000001 | TPS 19343 | ETA 12:43:57
Time 01:37:51 | Step 531562252 / 1418000001 | TPS 19387.6 | ETA 12:42:01
Time 01:38:01 | Step 531755578 / 1418000001 | TPS 19332.6 | ETA 12:44:02
Time 01:38:11 | Step 531948726 / 1418000001 | TPS 19314.7 | ETA 12:44:34
Time 01:38:21 | Step 532142980 / 1418000001 | TPS 19425.4 | ETA 12:40:03
Time 01:38:31 | Step 532337462 / 1418000001 | TPS 19448.2 | ETA 12:38:59
Time 01:38:41 | Step 532531854 / 1418000001 | TPS 19439.2 | ETA 12:39:10
Time 01:38:51 | Step 532725388 / 1418000001 | TPS 19353.4 | ETA 12:42:22
Time 01:39:01 | Step 532918658 / 1418000001 | TPS 19327 | ETA 12:43:15
Time 01:39:11 | Step 533112014 / 1418000001 | TPS 19335.4 | ETA 12:42:45
Time 01:39:21 | Step 533304783 / 1418000001 | TPS 19276.9 | ETA 12:44:54
Time 01:39:31 | Step 533499118 / 1418000001 | TPS 19433.5 | ETA 12:38:34
Time 01:39:41 | Step 533693400 / 1418000001 | TPS 19428.1 | ETA 12:38:36
Time 01:39:51 | Step 533887941 / 1418000001 | TPS 19454 | ETA 12:37:26
Time 01:40:01 | Step 534082360 / 1418000001 | TPS 19441.8 | ETA 12:37:44
Time 01:40:11 | Step 534277066 / 1418000001 | TPS 19470.6 | ETA 12:36:27
Time 01:40:21 | Step 534471453 / 1418000001 | TPS 19438.7 | ETA 12:37:32
Time 01:40:31 | Step 534665904 / 1418000001 | TPS 19445.1 | ETA 12:37:07
Time 01:40:41 | Step 534860202 / 1418000001 | TPS 19429.8 | ETA 12:37:32
Time 01:40:51 | Step 535053463 / 1418000001 | TPS 19326 | ETA 12:41:26
Time 01:41:01 | Step 535246269 / 1418000001 | TPS 19280.5 | ETA 12:43:04
Time 01:41:11 | Step 535439318 / 1418000001 | TPS 19304.8 | ETA 12:41:57
Time 01:41:21 | Step 535633023 / 1418000001 | TPS 19370.4 | ETA 12:39:12
Time 01:41:31 | Step 535825486 / 1418000001 | TPS 19246.3 | ETA 12:43:56
Time 01:41:41 | Step 536019142 / 1418000001 | TPS 19365.5 | ETA 12:39:04
Time 01:41:51 | Step 536213440 / 1418000001 | TPS 19429.6 | ETA 12:36:23
Time 01:42:01 | Step 536406928 / 1418000001 | TPS 19348.8 | ETA 12:39:23
Time 01:42:11 | Step 536600293 / 1418000001 | TPS 19336.4 | ETA 12:39:42
Time 01:42:21 | Step 536793484 / 1418000001 | TPS 19319 | ETA 12:40:13
Time 01:42:31 | Step 536986827 / 1418000001 | TPS 19334.2 | ETA 12:39:27
Time 01:42:41 | Step 537180263 / 1418000001 | TPS 19343.6 | ETA 12:38:55
Time 01:42:51 | Step 537374295 / 1418000001 | TPS 19403.2 | ETA 12:36:25
Time 01:43:01 | Step 537568965 / 1418000001 | TPS 19467 | ETA 12:33:46
Time 01:43:11 | Step 537763225 / 1418000001 | TPS 19426 | ETA 12:35:12
Time 01:43:21 | Step 537956712 / 1418000001 | TPS 19348.6 | ETA 12:38:03
Time 01:43:31 | Step 538150425 / 1418000001 | TPS 19371.3 | ETA 12:37:00
Time 01:43:41 | Step 538345024 / 1418000001 | TPS 19459.9 | ETA 12:33:23
Time 01:43:51 | Step 538539532 / 1418000001 | TPS 19450.7 | ETA 12:33:34
Time 01:44:01 | Step 538733352 / 1418000001 | TPS 19382 | ETA 12:36:05
Time 01:44:11 | Step 538926638 / 1418000001 | TPS 19328.6 | ETA 12:38:00
Time 01:44:21 | Step 539118931 / 1418000001 | TPS 19229.2 | ETA 12:41:45
Time 01:44:31 | Step 539311731 / 1418000001 | TPS 19280 | ETA 12:39:35
Time 01:44:41 | Step 539504064 / 1418000001 | TPS 19233.2 | ETA 12:41:15
Time 01:44:51 | Step 539697346 / 1418000001 | TPS 19328.1 | ETA 12:37:21
Time 01:45:01 | Step 539891049 / 1418000001 | TPS 19370.3 | ETA 12:35:32
Time 01:45:11 | Step 540083829 / 1418000001 | TPS 19277.9 | ETA 12:39:00
Time 01:45:21 | Step 540276259 / 1418000001 | TPS 19243 | ETA 12:40:12
Time 01:45:31 | Step 540470235 / 1418000001 | TPS 19397.5 | ETA 12:33:59
Time 01:45:41 | Step 540663499 / 1418000001 | TPS 19326.4 | ETA 12:36:35
Time 01:45:51 | Step 540856486 / 1418000001 | TPS 19298.6 | ETA 12:37:31
Time 01:46:01 | Step 541050415 / 1418000001 | TPS 19392.8 | ETA 12:33:40
Time 01:46:11 | Step 541244413 / 1418000001 | TPS 19399.7 | ETA 12:33:14
Time 01:46:21 | Step 541439126 / 1418000001 | TPS 19471.2 | ETA 12:30:18
Time 01:46:31 | Step 541633743 / 1418000001 | TPS 19461.7 | ETA 12:30:30
Time 01:46:41 | Step 541828069 / 1418000001 | TPS 19432.4 | ETA 12:31:28
Time 01:46:51 | Step 542022309 / 1418000001 | TPS 19423.9 | ETA 12:31:37
Time 01:47:01 | Step 542216183 / 1418000001 | TPS 19387.4 | ETA 12:32:52
Time 01:47:11 | Step 542409717 / 1418000001 | TPS 19353.3 | ETA 12:34:02
Time 01:47:21 | Step 542602284 / 1418000001 | TPS 19256.6 | ETA 12:37:39
Time 01:47:31 | Step 542794734 / 1418000001 | TPS 19244.8 | ETA 12:37:57
Time 01:47:41 | Step 542987281 / 1418000001 | TPS 19254.6 | ETA 12:37:24
Time 01:47:51 | Step 543179479 / 1418000001 | TPS 19219.8 | ETA 12:38:36
Time 01:48:01 | Step 543372519 / 1418000001 | TPS 19303.9 | ETA 12:35:08
Time 01:48:11 | Step 543566380 / 1418000001 | TPS 19386 | ETA 12:31:46
Time 01:48:21 | Step 543760126 / 1418000001 | TPS 19374.6 | ETA 12:32:03
Time 01:48:31 | Step 543953714 / 1418000001 | TPS 19358.7 | ETA 12:32:29
Time 01:48:41 | Step 544147390 / 1418000001 | TPS 19367.4 | ETA 12:31:59
Time 01:48:51 | Step 544341199 / 1418000001 | TPS 19380.8 | ETA 12:31:18
Time 01:49:01 | Step 544535120 / 1418000001 | TPS 19392.1 | ETA 12:30:42
Time 01:49:11 | Step 544729186 / 1418000001 | TPS 19406.5 | ETA 12:29:58
Time 01:49:21 | Step 544922994 / 1418000001 | TPS 19380.8 | ETA 12:30:48
Time 01:49:31 | Step 545117166 / 1418000001 | TPS 19417.1 | ETA 12:29:14
Time 01:49:41 | Step 545311163 / 1418000001 | TPS 19399.6 | ETA 12:29:44
Time 01:49:51 | Step 545505244 / 1418000001 | TPS 19408 | ETA 12:29:15
Time 01:50:01 | Step 545699057 / 1418000001 | TPS 19381.2 | ETA 12:30:07
Time 01:50:11 | Step 545893686 / 1418000001 | TPS 19462.8 | ETA 12:26:48
Time 01:50:21 | Step 546087318 / 1418000001 | TPS 19363.2 | ETA 12:30:29
Time 01:50:31 | Step 546281127 / 1418000001 | TPS 19380.9 | ETA 12:29:38
Time 01:50:41 | Step 546473751 / 1418000001 | TPS 19262.3 | ETA 12:34:05
Time 01:50:51 | Step 546667207 / 1418000001 | TPS 19345.6 | ETA 12:30:40
Time 01:51:01 | Step 546860334 / 1418000001 | TPS 19312.6 | ETA 12:31:47
Time 01:51:11 | Step 547053653 / 1418000001 | TPS 19331.8 | ETA 12:30:52
Time 01:51:21 | Step 547247216 / 1418000001 | TPS 19356.2 | ETA 12:29:45
Time 01:51:31 | Step 547440731 / 1418000001 | TPS 19351.5 | ETA 12:29:46
Time 01:51:41 | Step 547634677 / 1418000001 | TPS 19394.4 | ETA 12:27:57
Time 01:51:51 | Step 547829110 / 1418000001 | TPS 19443.3 | ETA 12:25:54
Time 01:52:01 | Step 548023241 / 1418000001 | TPS 19413 | ETA 12:26:54
Time 01:52:11 | Step 548217448 / 1418000001 | TPS 19420.7 | ETA 12:26:26
Time 01:52:21 | Step 548411633 / 1418000001 | TPS 19418.4 | ETA 12:26:21
Time 01:52:31 | Step 548604720 / 1418000001 | TPS 19308.7 | ETA 12:30:26
Time 01:52:41 | Step 548797382 / 1418000001 | TPS 19266.1 | ETA 12:31:55
Time 01:52:51 | Step 548989918 / 1418000001 | TPS 19253.6 | ETA 12:32:14
Time 01:53:01 | Step 549183398 / 1418000001 | TPS 19347.9 | ETA 12:28:24
Time 01:53:11 | Step 549378002 / 1418000001 | TPS 19460.4 | ETA 12:23:55
Time 01:53:21 | Step 549572274 / 1418000001 | TPS 19427.1 | ETA 12:25:01
Time 01:53:31 | Step 549766528 / 1418000001 | TPS 19425.4 | ETA 12:24:55
Time 01:53:41 | Step 549960382 / 1418000001 | TPS 19385.3 | ETA 12:26:18
Time 01:53:51 | Step 550154363 / 1418000001 | TPS 19398 | ETA 12:25:38
Time 01:54:01 | Step 550347723 / 1418000001 | TPS 19336 | ETA 12:27:52
Time 01:54:11 | Step 550541332 / 1418000001 | TPS 19360.8 | ETA 12:26:44
Time 01:54:21 | Step 550734552 / 1418000001 | TPS 19322 | ETA 12:28:04
Time 01:54:31 | Step 550928274 / 1418000001 | TPS 19372.1 | ETA 12:25:58
Time 01:54:41 | Step 551122001 / 1418000001 | TPS 19372.6 | ETA 12:25:47
Time 01:54:51 | Step 551316353 / 1418000001 | TPS 19435.1 | ETA 12:23:13
Time 01:55:01 | Step 551510416 / 1418000001 | TPS 19406.2 | ETA 12:24:10
Time 01:55:11 | Step 551704811 / 1418000001 | TPS 19439.5 | ETA 12:22:43
Time 01:55:21 | Step 551897622 / 1418000001 | TPS 19281.1 | ETA 12:28:39
Time 01:55:31 | Step 552089701 / 1418000001 | TPS 19207.7 | ETA 12:31:21
Time 01:55:41 | Step 552284180 / 1418000001 | TPS 19447.8 | ETA 12:21:54
Time 01:55:51 | Step 552478616 / 1418000001 | TPS 19443.5 | ETA 12:21:54
Time 01:56:01 | Step 552672383 / 1418000001 | TPS 19376.6 | ETA 12:24:18
Time 01:56:11 | Step 552865065 / 1418000001 | TPS 19268.2 | ETA 12:28:19
Time 01:56:21 | Step 553057964 / 1418000001 | TPS 19289.9 | ETA 12:27:19
Time 01:56:31 | Step 553252229 / 1418000001 | TPS 19426.5 | ETA 12:21:53
Time 01:56:41 | Step 553446460 / 1418000001 | TPS 19423 | ETA 12:21:51
Time 01:56:51 | Step 553640892 / 1418000001 | TPS 19443.2 | ETA 12:20:55
Time 01:57:01 | Step 553833924 / 1418000001 | TPS 19303.2 | ETA 12:26:08
Time 01:57:11 | Step 554026282 / 1418000001 | TPS 19235.7 | ETA 12:28:35
Time 01:57:21 | Step 554218948 / 1418000001 | TPS 19266.5 | ETA 12:27:13
Time 01:57:31 | Step 554411609 / 1418000001 | TPS 19266 | ETA 12:27:04
Time 01:57:41 | Step 554605065 / 1418000001 | TPS 19345.5 | ETA 12:23:50
Time 01:57:51 | Step 554798965 / 1418000001 | TPS 19389.8 | ETA 12:21:58
Time 01:58:01 | Step 554992540 / 1418000001 | TPS 19357.3 | ETA 12:23:02
Time 01:58:11 | Step 555186065 / 1418000001 | TPS 19352.5 | ETA 12:23:04
Time 01:58:21 | Step 555379968 / 1418000001 | TPS 19390.2 | ETA 12:21:27
Time 01:58:31 | Step 555574144 / 1418000001 | TPS 19417.6 | ETA 12:20:14
Time 01:58:41 | Step 555769007 / 1418000001 | TPS 19486.2 | ETA 12:17:28
Time 01:58:51 | Step 555963282 / 1418000001 | TPS 19427.4 | ETA 12:19:32
Time 01:59:01 | Step 556157191 / 1418000001 | TPS 19390.8 | ETA 12:20:45
Time 01:59:11 | Step 556351853 / 1418000001 | TPS 19466.1 | ETA 12:17:43
Time 01:59:21 | Step 556545102 / 1418000001 | TPS 19324.8 | ETA 12:22:57
Time 01:59:31 | Step 556738593 / 1418000001 | TPS 19349.1 | ETA 12:21:51
Time 01:59:41 | Step 556932952 / 1418000001 | TPS 19435.9 | ETA 12:18:22
Time 01:59:51 | Step 557127300 / 1418000001 | TPS 19434.7 | ETA 12:18:15
Time 02:00:01 | Step 557321175 / 1418000001 | TPS 19387.4 | ETA 12:19:53
Time 02:00:11 | Step 557515874 / 1418000001 | TPS 19469.9 | ETA 12:16:35
Time 02:00:21 | Step 557710496 / 1418000001 | TPS 19462.1 | ETA 12:16:43
Time 02:00:31 | Step 557905184 / 1418000001 | TPS 19468.7 | ETA 12:16:18
Time 02:00:41 | Step 558099313 / 1418000001 | TPS 19412.9 | ETA 12:18:15
Time 02:00:51 | Step 558293482 / 1418000001 | TPS 19416.9 | ETA 12:17:56
Time 02:01:01 | Step 558488270 / 1418000001 | TPS 19478.7 | ETA 12:15:25
Time 02:01:11 | Step 558682251 / 1418000001 | TPS 19398 | ETA 12:18:19
Time 02:01:21 | Step 558876780 / 1418000001 | TPS 19452.9 | ETA 12:16:04
Time 02:01:31 | Step 559070943 / 1418000001 | TPS 19416.3 | ETA 12:17:17
Time 02:01:41 | Step 559265070 / 1418000001 | TPS 19412.6 | ETA 12:17:15
Time 02:01:51 | Step 559458293 / 1418000001 | TPS 19322.3 | ETA 12:20:32
Time 02:02:01 | Step 559651432 / 1418000001 | TPS 19313.9 | ETA 12:20:42
Time 02:02:11 | Step 559845590 / 1418000001 | TPS 19415.7 | ETA 12:16:38
Time 02:02:21 | Step 560039600 / 1418000001 | TPS 19401 | ETA 12:17:02
Time 02:02:31 | Step 560234020 / 1418000001 | TPS 19441.9 | ETA 12:15:19
Time 02:02:41 | Step 560428330 / 1418000001 | TPS 19430.9 | ETA 12:15:34
Time 02:02:51 | Step 560622901 / 1418000001 | TPS 19457 | ETA 12:14:25
Time 02:03:01 | Step 560817354 / 1418000001 | TPS 19445.3 | ETA 12:14:41
Time 02:03:11 | Step 561011808 / 1418000001 | TPS 19445.4 | ETA 12:14:31
Time 02:03:21 | Step 561206714 / 1418000001 | TPS 19490.6 | ETA 12:12:39
Time 02:03:31 | Step 561401372 / 1418000001 | TPS 19465.8 | ETA 12:13:25
Time 02:03:41 | Step 561595138 / 1418000001 | TPS 19376.5 | ETA 12:16:38
Time 02:03:51 | Step 561789102 / 1418000001 | TPS 19396.4 | ETA 12:15:42
Time 02:04:01 | Step 561983344 / 1418000001 | TPS 19424.1 | ETA 12:14:29
Time 02:04:11 | Step 562177779 / 1418000001 | TPS 19443.4 | ETA 12:13:36
Time 02:04:21 | Step 562372270 / 1418000001 | TPS 19449.1 | ETA 12:13:13
Time 02:04:31 | Step 562566601 / 1418000001 | TPS 19432.7 | ETA 12:13:40
Time 02:04:41 | Step 562761027 / 1418000001 | TPS 19442.6 | ETA 12:13:07
Time 02:04:51 | Step 562955963 / 1418000001 | TPS 19493.5 | ETA 12:11:02
Time 02:05:01 | Step 563149014 / 1418000001 | TPS 19305.1 | ETA 12:18:01
Time 02:05:11 | Step 563342620 / 1418000001 | TPS 19360.5 | ETA 12:15:44
Time 02:05:21 | Step 563536489 / 1418000001 | TPS 19386.9 | ETA 12:14:34
Time 02:05:31 | Step 563729543 / 1418000001 | TPS 19305.4 | ETA 12:17:30
Time 02:05:41 | Step 563922582 / 1418000001 | TPS 19303.9 | ETA 12:17:23
Time 02:05:51 | Step 564115549 / 1418000001 | TPS 19296.5 | ETA 12:17:30
Time 02:06:01 | Step 564308690 / 1418000001 | TPS 19314.1 | ETA 12:16:40
Time 02:06:11 | Step 564502027 / 1418000001 | TPS 19333.6 | ETA 12:15:45
Time 02:06:21 | Step 564695772 / 1418000001 | TPS 19374.4 | ETA 12:14:02
Time 02:06:31 | Step 564890006 / 1418000001 | TPS 19423.4 | ETA 12:12:01
Time 02:06:41 | Step 565084199 / 1418000001 | TPS 19419.3 | ETA 12:12:01
Time 02:06:51 | Step 565278961 / 1418000001 | TPS 19476.1 | ETA 12:09:42
Time 02:07:01 | Step 565473198 / 1418000001 | TPS 19423.6 | ETA 12:11:31
Time 02:07:11 | Step 565666843 / 1418000001 | TPS 19364.4 | ETA 12:13:35
Time 02:07:21 | Step 565859817 / 1418000001 | TPS 19297.4 | ETA 12:15:58
Time 02:07:31 | Step 566053019 / 1418000001 | TPS 19320.2 | ETA 12:14:56
Time 02:07:41 | Step 566246031 / 1418000001 | TPS 19301.1 | ETA 12:15:29
Time 02:07:51 | Step 566438461 / 1418000001 | TPS 19242.9 | ETA 12:17:33
Time 02:08:01 | Step 566631987 / 1418000001 | TPS 19352.6 | ETA 12:13:12
Time 02:08:11 | Step 566826611 / 1418000001 | TPS 19462.3 | ETA 12:08:54
Time 02:08:21 | Step 567020955 / 1418000001 | TPS 19434.3 | ETA 12:09:47
Time 02:08:31 | Step 567214729 / 1418000001 | TPS 19377.4 | ETA 12:11:46
Time 02:08:41 | Step 567409176 / 1418000001 | TPS 19444.7 | ETA 12:09:04
Time 02:08:51 | Step 567602056 / 1418000001 | TPS 19288 | ETA 12:14:49
Time 02:09:01 | Step 567794817 / 1418000001 | TPS 19276.1 | ETA 12:15:06
Time 02:09:11 | Step 567987957 / 1418000001 | TPS 19314 | ETA 12:13:30
Time 02:09:21 | Step 568180540 / 1418000001 | TPS 19258.3 | ETA 12:15:27
Time 02:09:31 | Step 568374714 / 1418000001 | TPS 19417.3 | ETA 12:09:16
Time 02:09:41 | Step 568568621 / 1418000001 | TPS 19390.6 | ETA 12:10:06
Time 02:09:51 | Step 568761765 / 1418000001 | TPS 19314.3 | ETA 12:12:49
Time 02:10:01 | Step 568955860 / 1418000001 | TPS 19409.5 | ETA 12:09:03
Time 02:10:11 | Step 569148915 / 1418000001 | TPS 19305.5 | ETA 12:12:49
Time 02:10:21 | Step 569343204 / 1418000001 | TPS 19428.9 | ETA 12:08:00
Time 02:10:31 | Step 569537417 / 1418000001 | TPS 19421.2 | ETA 12:08:07
Time 02:10:41 | Step 569731852 / 1418000001 | TPS 19443.5 | ETA 12:07:07
Time 02:10:51 | Step 569925479 / 1418000001 | TPS 19362.6 | ETA 12:09:59
Time 02:11:01 | Step 570119614 / 1418000001 | TPS 19413.5 | ETA 12:07:54
Time 02:11:11 | Step 570313872 / 1418000001 | TPS 19425.8 | ETA 12:07:17
Time 02:11:21 | Step 570508154 / 1418000001 | TPS 19428 | ETA 12:07:02
Time 02:11:31 | Step 570702589 / 1418000001 | TPS 19443.4 | ETA 12:06:17
Time 02:11:41 | Step 570897330 / 1418000001 | TPS 19474.1 | ETA 12:04:58
Time 02:11:51 | Step 571091799 / 1418000001 | TPS 19446.9 | ETA 12:05:49
Time 02:12:01 | Step 571285442 / 1418000001 | TPS 19364.3 | ETA 12:08:45
Time 02:12:11 | Step 571478215 / 1418000001 | TPS 19277.2 | ETA 12:11:53
Time 02:12:21 | Step 571672365 / 1418000001 | TPS 19415 | ETA 12:06:31
Time 02:12:31 | Step 571866478 / 1418000001 | TPS 19411.2 | ETA 12:06:29
Time 02:12:41 | Step 572060285 / 1418000001 | TPS 19380.6 | ETA 12:07:28
Time 02:12:51 | Step 572254586 / 1418000001 | TPS 19429.9 | ETA 12:05:28
Time 02:13:01 | Step 572449214 / 1418000001 | TPS 19462.6 | ETA 12:04:04
Time 02:13:11 | Step 572643503 / 1418000001 | TPS 19428.8 | ETA 12:05:10
Time 02:13:21 | Step 572837518 / 1418000001 | TPS 19401.4 | ETA 12:06:01
Time 02:13:31 | Step 573031444 / 1418000001 | TPS 19392.4 | ETA 12:06:12
Time 02:13:41 | Step 573225598 / 1418000001 | TPS 19415.4 | ETA 12:05:10
Time 02:13:51 | Step 573420169 / 1418000001 | TPS 19457 | ETA 12:03:27
Time 02:14:01 | Step 573614737 / 1418000001 | TPS 19456.7 | ETA 12:03:18
Time 02:14:11 | Step 573808755 / 1418000001 | TPS 19401.7 | ETA 12:05:11
Time 02:14:21 | Step 574002875 / 1418000001 | TPS 19412 | ETA 12:04:38
Time 02:14:31 | Step 574197521 / 1418000001 | TPS 19464.6 | ETA 12:02:30
Time 02:14:41 | Step 574391024 / 1418000001 | TPS 19350.3 | ETA 12:06:36
Time 02:14:51 | Step 574584293 / 1418000001 | TPS 19326.9 | ETA 12:07:19
Time 02:15:01 | Step 574778289 / 1418000001 | TPS 19399.5 | ETA 12:04:26
Time 02:15:11 | Step 574972595 / 1418000001 | TPS 19430.5 | ETA 12:03:06
Time 02:15:21 | Step 575166221 / 1418000001 | TPS 19362.5 | ETA 12:05:29
Time 02:15:31 | Step 575359418 / 1418000001 | TPS 19319.7 | ETA 12:06:55
Time 02:15:41 | Step 575553664 / 1418000001 | TPS 19424.5 | ETA 12:02:50
Time 02:15:51 | Step 575747731 / 1418000001 | TPS 19406.7 | ETA 12:03:20
Time 02:16:01 | Step 575942330 / 1418000001 | TPS 19459.8 | ETA 12:01:11
Time 02:16:11 | Step 576136995 / 1418000001 | TPS 19466.4 | ETA 12:00:46
Time 02:16:21 | Step 576331388 / 1418000001 | TPS 19439.2 | ETA 12:01:37
Time 02:16:31 | Step 576525677 / 1418000001 | TPS 19428.8 | ETA 12:01:50
Time 02:16:41 | Step 576720089 / 1418000001 | TPS 19441.2 | ETA 12:01:13
Time 02:16:51 | Step 576914364 / 1418000001 | TPS 19427.4 | ETA 12:01:33
Time 02:17:01 | Step 577108367 / 1418000001 | TPS 19400.2 | ETA 12:02:24
Time 02:17:11 | Step 577302749 / 1418000001 | TPS 19438.1 | ETA 12:00:49
Time 02:17:21 | Step 577496356 / 1418000001 | TPS 19360.7 | ETA 12:03:32
Time 02:17:31 | Step 577691055 / 1418000001 | TPS 19469.8 | ETA 11:59:19
Time 02:17:41 | Step 577885569 / 1418000001 | TPS 19451.3 | ETA 11:59:50
Time 02:17:51 | Step 578079689 / 1418000001 | TPS 19411.9 | ETA 12:01:08
Time 02:18:01 | Step 578274301 / 1418000001 | TPS 19461.1 | ETA 11:59:08
Time 02:18:11 | Step 578468362 / 1418000001 | TPS 19406.1 | ETA 12:01:01
Time 02:18:21 | Step 578662834 / 1418000001 | TPS 19447.1 | ETA 11:59:19
Time 02:18:31 | Step 578856893 / 1418000001 | TPS 19405.8 | ETA 12:00:41
Time 02:18:41 | Step 579049809 / 1418000001 | TPS 19291.5 | ETA 12:04:47
Time 02:18:51 | Step 579243530 / 1418000001 | TPS 19372.1 | ETA 12:01:37
Time 02:19:01 | Step 579437931 / 1418000001 | TPS 19440.1 | ETA 11:58:55
Time 02:19:11 | Step 579632139 / 1418000001 | TPS 19420.7 | ETA 11:59:28
Time 02:19:21 | Step 579825790 / 1418000001 | TPS 19365 | ETA 12:01:22
Time 02:19:31 | Step 580019013 / 1418000001 | TPS 19322.2 | ETA 12:02:48
Time 02:19:41 | Step 580213209 / 1418000001 | TPS 19419.6 | ETA 11:59:01
Time 02:19:51 | Step 580406698 / 1418000001 | TPS 19348.8 | ETA 12:01:29
Time 02:20:01 | Step 580600873 / 1418000001 | TPS 19417.5 | ETA 11:58:46
Time 02:20:11 | Step 580792513 / 1418000001 | TPS 19164 | ETA 12:08:06
Time 02:20:21 | Step 580985475 / 1418000001 | TPS 19296.1 | ETA 12:02:57
Time 02:20:31 | Step 581178486 / 1418000001 | TPS 19301 | ETA 12:02:36
Time 02:20:41 | Step 581371522 / 1418000001 | TPS 19303.5 | ETA 12:02:20
Time 02:20:51 | Step 581565000 / 1418000001 | TPS 19347.7 | ETA 12:00:31
Time 02:21:01 | Step 581759611 / 1418000001 | TPS 19461 | ETA 11:56:09
Time 02:21:11 | Step 581952895 / 1418000001 | TPS 19328.3 | ETA 12:00:54
Time 02:21:21 | Step 582146517 / 1418000001 | TPS 19362 | ETA 11:59:29
Time 02:21:31 | Step 582340261 / 1418000001 | TPS 19374.3 | ETA 11:58:52
Time 02:21:41 | Step 582532974 / 1418000001 | TPS 19271.3 | ETA 12:02:32
Time 02:21:51 | Step 582726286 / 1418000001 | TPS 19331.1 | ETA 12:00:08
Time 02:22:01 | Step 582920445 / 1418000001 | TPS 19415.9 | ETA 11:56:50
Time 02:22:11 | Step 583114595 / 1418000001 | TPS 19415 | ETA 11:56:42
Time 02:22:21 | Step 583309272 / 1418000001 | TPS 19467.7 | ETA 11:54:35
Time 02:22:31 | Step 583503249 / 1418000001 | TPS 19397.7 | ETA 11:57:00
Time 02:22:41 | Step 583697388 / 1418000001 | TPS 19413.9 | ETA 11:56:14
Time 02:22:51 | Step 583891393 / 1418000001 | TPS 19400.5 | ETA 11:56:34
Time 02:23:01 | Step 584084399 / 1418000001 | TPS 19300.6 | ETA 12:00:06
Time 02:23:11 | Step 584278370 / 1418000001 | TPS 19396.9 | ETA 11:56:22
Time 02:23:21 | Step 584471023 / 1418000001 | TPS 19265.2 | ETA 12:01:06
Time 02:23:31 | Step 584665499 / 1418000001 | TPS 19447.5 | ETA 11:54:10
Time 02:23:41 | Step 584859269 / 1418000001 | TPS 19377 | ETA 11:56:36
Time 02:23:51 | Step 585052294 / 1418000001 | TPS 19302.5 | ETA 11:59:12
Time 02:24:01 | Step 585245968 / 1418000001 | TPS 19367.3 | ETA 11:56:37
Time 02:24:11 | Step 585438874 / 1418000001 | TPS 19290.6 | ETA 11:59:18
Time 02:24:21 | Step 585631736 / 1418000001 | TPS 19286.2 | ETA 11:59:18
Time 02:24:31 | Step 585825746 / 1418000001 | TPS 19401 | ETA 11:54:53
Time 02:24:41 | Step 586019438 / 1418000001 | TPS 19369.1 | ETA 11:55:53
Time 02:24:51 | Step 586213361 / 1418000001 | TPS 19392.2 | ETA 11:54:52
Time 02:25:01 | Step 586407435 / 1418000001 | TPS 19407.3 | ETA 11:54:09
Time 02:25:11 | Step 586601271 / 1418000001 | TPS 19383.6 | ETA 11:54:51
Time 02:25:21 | Step 586794933 / 1418000001 | TPS 19366.2 | ETA 11:55:20
Time 02:25:31 | Step 586989166 / 1418000001 | TPS 19423.3 | ETA 11:53:04
Time 02:25:41 | Step 587183239 / 1418000001 | TPS 19407.2 | ETA 11:53:29
Time 02:25:51 | Step 587377689 / 1418000001 | TPS 19444.9 | ETA 11:51:56
Time 02:26:01 | Step 587572263 / 1418000001 | TPS 19457.3 | ETA 11:51:19
Time 02:26:11 | Step 587766557 / 1418000001 | TPS 19429.3 | ETA 11:52:10
Time 02:26:21 | Step 587960742 / 1418000001 | TPS 19418.3 | ETA 11:52:25
Time 02:26:31 | Step 588154468 / 1418000001 | TPS 19372.5 | ETA 11:53:56
Time 02:26:41 | Step 588348735 / 1418000001 | TPS 19426.7 | ETA 11:51:46
Time 02:26:51 | Step 588543352 / 1418000001 | TPS 19461.6 | ETA 11:50:20
Time 02:27:01 | Step 588738001 / 1418000001 | TPS 19464.7 | ETA 11:50:03
Time 02:27:11 | Step 588932186 / 1418000001 | TPS 19418.5 | ETA 11:51:34
Time 02:27:21 | Step 589125945 / 1418000001 | TPS 19375.9 | ETA 11:52:58
Time 02:27:31 | Step 589319922 / 1418000001 | TPS 19397.7 | ETA 11:52:00
Time 02:27:41 | Step 589513920 / 1418000001 | TPS 19399.7 | ETA 11:51:46
Time 02:27:51 | Step 589708255 / 1418000001 | TPS 19433.4 | ETA 11:50:21
Time 02:28:01 | Step 589901777 / 1418000001 | TPS 19352.1 | ETA 11:53:11
Time 02:28:11 | Step 590095403 / 1418000001 | TPS 19362.4 | ETA 11:52:38
Time 02:28:21 | Step 590289398 / 1418000001 | TPS 19399.5 | ETA 11:51:06
Time 02:28:31 | Step 590484021 / 1418000001 | TPS 19462.3 | ETA 11:48:38
Time 02:28:41 | Step 590677201 / 1418000001 | TPS 19317.6 | ETA 11:53:47
Time 02:28:51 | Step 590871350 / 1418000001 | TPS 19414.8 | ETA 11:50:02
Time 02:29:01 | Step 591065132 / 1418000001 | TPS 19378.1 | ETA 11:51:13
Time 02:29:11 | Step 591259401 / 1418000001 | TPS 19426.9 | ETA 11:49:16
Time 02:29:21 | Step 591453994 / 1418000001 | TPS 19459.3 | ETA 11:47:55
Time 02:29:31 | Step 591648553 / 1418000001 | TPS 19455.9 | ETA 11:47:53
Time 02:29:41 | Step 591843124 / 1418000001 | TPS 19457.1 | ETA 11:47:40
Time 02:29:51 | Step 592036219 / 1418000001 | TPS 19309.4 | ETA 11:52:55
Time 02:30:01 | Step 592229442 / 1418000001 | TPS 19322.2 | ETA 11:52:16
Time 02:30:11 | Step 592423275 / 1418000001 | TPS 19383.3 | ETA 11:49:52
Time 02:30:21 | Step 592617877 / 1418000001 | TPS 19460.2 | ETA 11:46:53
Time 02:30:31 | Step 592812631 / 1418000001 | TPS 19475.3 | ETA 11:46:10
Time 02:30:41 | Step 593007148 / 1418000001 | TPS 19451.5 | ETA 11:46:52
Time 02:30:51 | Step 593201663 / 1418000001 | TPS 19451.4 | ETA 11:46:42
Time 02:31:01 | Step 593395943 / 1418000001 | TPS 19428 | ETA 11:47:24
Time 02:31:11 | Step 593589986 / 1418000001 | TPS 19404.2 | ETA 11:48:06
Time 02:31:21 | Step 593783941 / 1418000001 | TPS 19395.5 | ETA 11:48:15
Time 02:31:31 | Step 593977637 / 1418000001 | TPS 19369.6 | ETA 11:49:02
Time 02:31:41 | Step 594171959 / 1418000001 | TPS 19432.1 | ETA 11:46:35
Time 02:31:51 | Step 594366491 / 1418000001 | TPS 19453.2 | ETA 11:45:39
Time 02:32:01 | Step 594561244 / 1418000001 | TPS 19475.2 | ETA 11:44:41
Time 02:32:11 | Step 594755712 / 1418000001 | TPS 19446.8 | ETA 11:45:33
Time 02:32:21 | Step 594950145 / 1418000001 | TPS 19443.3 | ETA 11:45:30
Time 02:32:31 | Step 595144168 / 1418000001 | TPS 19402.3 | ETA 11:46:50
Time 02:32:41 | Step 595337633 / 1418000001 | TPS 19346.5 | ETA 11:48:42
Time 02:32:51 | Step 595531625 / 1418000001 | TPS 19399 | ETA 11:46:37
Time 02:33:01 | Step 595725389 / 1418000001 | TPS 19376.3 | ETA 11:47:17
Time 02:33:11 | Step 595919538 / 1418000001 | TPS 19414.8 | ETA 11:45:42
Time 02:33:21 | Step 596113565 / 1418000001 | TPS 19402.7 | ETA 11:45:59
Time 02:33:31 | Step 596307956 / 1418000001 | TPS 19439.1 | ETA 11:44:30
Time 02:33:41 | Step 596502391 / 1418000001 | TPS 19443.4 | ETA 11:44:10
Time 02:33:51 | Step 596696309 / 1418000001 | TPS 19391.6 | ETA 11:45:53
Time 02:34:01 | Step 596890803 / 1418000001 | TPS 19449.4 | ETA 11:43:37
Time 02:34:11 | Step 597084740 / 1418000001 | TPS 19393.6 | ETA 11:45:29
Time 02:34:21 | Step 597279343 / 1418000001 | TPS 19460.3 | ETA 11:42:54
Time 02:34:31 | Step 597473011 / 1418000001 | TPS 19366.8 | ETA 11:46:07
Time 02:34:41 | Step 597667512 / 1418000001 | TPS 19450 | ETA 11:42:56
Time 02:34:51 | Step 597862225 / 1418000001 | TPS 19471.1 | ETA 11:42:00
Time 02:35:01 | Step 598056914 / 1418000001 | TPS 19468.7 | ETA 11:41:55
Time 02:35:11 | Step 598251625 / 1418000001 | TPS 19471 | ETA 11:41:41
Time 02:35:21 | Step 598445919 / 1418000001 | TPS 19429.3 | ETA 11:43:01
Time 02:35:31 | Step 598640105 / 1418000001 | TPS 19418.5 | ETA 11:43:14
Time 02:35:41 | Step 598833588 / 1418000001 | TPS 19348.2 | ETA 11:45:38
Time 02:35:51 | Step 599027752 / 1418000001 | TPS 19416.3 | ETA 11:42:59
Time 02:36:01 | Step 599222498 / 1418000001 | TPS 19474.5 | ETA 11:40:43
Time 02:36:11 | Step 599416754 / 1418000001 | TPS 19425.6 | ETA 11:42:19
Time 02:36:21 | Step 599611476 / 1418000001 | TPS 19472.1 | ETA 11:40:28
Time 02:36:31 | Step 599805129 / 1418000001 | TPS 19365.2 | ETA 11:44:10
Time 02:36:41 | Step 599999065 / 1418000001 | TPS 19393.5 | ETA 11:42:59
Time 02:36:51 | Step 600192985 / 1418000001 | TPS 19392 | ETA 11:42:52
Time 02:37:01 | Step 600386874 / 1418000001 | TPS 19388.8 | ETA 11:42:49
Time 02:37:11 | Step 600581383 / 1418000001 | TPS 19450.8 | ETA 11:40:24
Time 02:37:21 | Step 600776003 / 1418000001 | TPS 19462 | ETA 11:39:50
Time 02:37:31 | Step 600970757 / 1418000001 | TPS 19475.4 | ETA 11:39:11
Time 02:37:41 | Step 601165025 / 1418000001 | TPS 19426.8 | ETA 11:40:46
Time 02:37:51 | Step 601359396 / 1418000001 | TPS 19437 | ETA 11:40:14
Time 02:38:01 | Step 601553963 / 1418000001 | TPS 19456.6 | ETA 11:39:22
Time 02:38:11 | Step 601748646 / 1418000001 | TPS 19468.3 | ETA 11:38:47
Time 02:38:21 | Step 601943122 / 1418000001 | TPS 19447.6 | ETA 11:39:21
Time 02:38:31 | Step 602137287 / 1418000001 | TPS 19416.4 | ETA 11:40:19
Time 02:38:41 | Step 602332042 / 1418000001 | TPS 19475.5 | ETA 11:38:01
Time 02:38:51 | Step 602526482 / 1418000001 | TPS 19443.9 | ETA 11:38:59
Time 02:39:01 | Step 602720563 / 1418000001 | TPS 19408.1 | ETA 11:40:07
Time 02:39:11 | Step 602914710 / 1418000001 | TPS 19414.7 | ETA 11:39:42
Time 02:39:21 | Step 603109092 / 1418000001 | TPS 19438.2 | ETA 11:38:42
Time 02:39:31 | Step 603303143 / 1418000001 | TPS 19405.1 | ETA 11:39:43
Time 02:39:41 | Step 603497335 / 1418000001 | TPS 19419.1 | ETA 11:39:03
Time 02:39:51 | Step 603691691 / 1418000001 | TPS 19435.6 | ETA 11:38:17
Time 02:40:01 | Step 603886144 / 1418000001 | TPS 19445.2 | ETA 11:37:47
Time 02:40:11 | Step 604080702 / 1418000001 | TPS 19455.8 | ETA 11:37:14
Time 02:40:21 | Step 604275096 / 1418000001 | TPS 19439.4 | ETA 11:37:39
Time 02:40:31 | Step 604468457 / 1418000001 | TPS 19335.9 | ETA 11:41:13
Time 02:40:41 | Step 604661853 / 1418000001 | TPS 19339.5 | ETA 11:40:55
Time 02:40:51 | Step 604856261 / 1418000001 | TPS 19440.7 | ETA 11:37:06
Time 02:41:01 | Step 605050520 / 1418000001 | TPS 19425.9 | ETA 11:37:28
Time 02:41:11 | Step 605244265 / 1418000001 | TPS 19374.5 | ETA 11:39:09
Time 02:41:21 | Step 605437563 / 1418000001 | TPS 19329.8 | ETA 11:40:36
Time 02:41:31 | Step 605631384 / 1418000001 | TPS 19382.1 | ETA 11:38:33
Time 02:41:41 | Step 605824871 / 1418000001 | TPS 19348.7 | ETA 11:39:35
Time 02:41:51 | Step 606018281 / 1418000001 | TPS 19341 | ETA 11:39:42
Time 02:42:01 | Step 606211524 / 1418000001 | TPS 19324.3 | ETA 11:40:08
Time 02:42:11 | Step 606405482 / 1418000001 | TPS 19395.7 | ETA 11:37:23
Time 02:42:21 | Step 606599401 / 1418000001 | TPS 19391.5 | ETA 11:37:23
Time 02:42:31 | Step 606792892 / 1418000001 | TPS 19349 | ETA 11:38:44
Time 02:42:41 | Step 606986431 / 1418000001 | TPS 19353.9 | ETA 11:38:24
Time 02:42:51 | Step 607179241 / 1418000001 | TPS 19280.9 | ETA 11:40:52
Time 02:43:01 | Step 607373809 / 1418000001 | TPS 19456.8 | ETA 11:34:22
Time 02:43:11 | Step 607567712 / 1418000001 | TPS 19390.1 | ETA 11:36:36
Time 02:43:21 | Step 607762440 / 1418000001 | TPS 19472.8 | ETA 11:33:28
Time 02:43:31 | Step 607956611 / 1418000001 | TPS 19417.1 | ETA 11:35:18
Time 02:43:41 | Step 608151135 / 1418000001 | TPS 19452.4 | ETA 11:33:52
Time 02:43:51 | Step 608345305 / 1418000001 | TPS 19417 | ETA 11:34:58
Time 02:44:01 | Step 608539390 / 1418000001 | TPS 19408.3 | ETA 11:35:06
Time 02:44:11 | Step 608733871 / 1418000001 | TPS 19448 | ETA 11:33:31
Time 02:44:21 | Step 608927982 / 1418000001 | TPS 19411 | ETA 11:34:41
Time 02:44:31 | Step 609121501 / 1418000001 | TPS 19351.5 | ETA 11:36:39
Time 02:44:41 | Step 609315393 / 1418000001 | TPS 19389.2 | ETA 11:35:08
Time 02:44:51 | Step 609509886 / 1418000001 | TPS 19449.2 | ETA 11:32:49
Time 02:45:01 | Step 609704407 / 1418000001 | TPS 19452.1 | ETA 11:32:33
Time 02:45:11 | Step 609898914 / 1418000001 | TPS 19450.6 | ETA 11:32:26
Time 02:45:21 | Step 610093053 / 1418000001 | TPS 19413.8 | ETA 11:33:35
Time 02:45:31 | Step 610286401 / 1418000001 | TPS 19334.4 | ETA 11:36:15
Time 02:45:41 | Step 610480140 / 1418000001 | TPS 19373.8 | ETA 11:34:40
Time 02:45:51 | Step 610673784 / 1418000001 | TPS 19364.4 | ETA 11:34:51
Time 02:46:01 | Step 610866983 / 1418000001 | TPS 19319.9 | ETA 11:36:17
Time 02:46:11 | Step 611059555 / 1418000001 | TPS 19257.2 | ETA 11:38:23
Time 02:46:21 | Step 611253253 / 1418000001 | TPS 19369.7 | ETA 11:34:09
Time 02:46:31 | Step 611447673 / 1418000001 | TPS 19442 | ETA 11:31:25
Time 02:46:41 | Step 611641190 / 1418000001 | TPS 19351.7 | ETA 11:34:28
Time 02:46:51 | Step 611835550 / 1418000001 | TPS 19435.9 | ETA 11:31:18
Time 02:47:01 | Step 612029564 / 1418000001 | TPS 19401.3 | ETA 11:32:22
Time 02:47:11 | Step 612223507 / 1418000001 | TPS 19394.3 | ETA 11:32:27
Time 02:47:21 | Step 612417924 / 1418000001 | TPS 19441.6 | ETA 11:30:35
Time 02:47:31 | Step 612612192 / 1418000001 | TPS 19426.8 | ETA 11:30:57
Time 02:47:41 | Step 612806451 / 1418000001 | TPS 19425.9 | ETA 11:30:49
Time 02:47:51 | Step 613000530 / 1418000001 | TPS 19407.9 | ETA 11:31:17
Time 02:48:01 | Step 613194631 / 1418000001 | TPS 19410.1 | ETA 11:31:03
Time 02:48:11 | Step 613388898 / 1418000001 | TPS 19426.7 | ETA 11:30:17
Time 02:48:21 | Step 613583081 / 1418000001 | TPS 19418.1 | ETA 11:30:26
Time 02:48:31 | Step 613776673 / 1418000001 | TPS 19359.1 | ETA 11:32:22
Time 02:48:41 | Step 613970020 / 1418000001 | TPS 19334.6 | ETA 11:33:04
Time 02:48:51 | Step 614162363 / 1418000001 | TPS 19234.2 | ETA 11:36:32
Time 02:49:01 | Step 614355665 / 1418000001 | TPS 19330.2 | ETA 11:32:54
Time 02:49:11 | Step 614549355 / 1418000001 | TPS 19369 | ETA 11:31:21
Time 02:49:21 | Step 614742573 / 1418000001 | TPS 19321.7 | ETA 11:32:52
Time 02:49:31 | Step 614937181 / 1418000001 | TPS 19460.8 | ETA 11:27:45
Time 02:49:41 | Step 615131503 / 1418000001 | TPS 19432.1 | ETA 11:28:36
Time 02:49:51 | Step 615326138 / 1418000001 | TPS 19463.5 | ETA 11:27:20
Time 02:50:01 | Step 615520469 / 1418000001 | TPS 19433 | ETA 11:28:14
Time 02:50:11 | Step 615714845 / 1418000001 | TPS 19437.6 | ETA 11:27:54
Time 02:50:21 | Step 615908975 / 1418000001 | TPS 19413 | ETA 11:28:37
Time 02:50:31 | Step 616103095 / 1418000001 | TPS 19412 | ETA 11:28:29
Time 02:50:41 | Step 616297828 / 1418000001 | TPS 19473.2 | ETA 11:26:09
Time 02:50:51 | Step 616492390 / 1418000001 | TPS 19456.2 | ETA 11:26:35
[...]
Time 13:35:21 | Step 1366528767 / 1418000001 | TPS 19451 | ETA 00:44:06
Time 13:35:31 | Step 1366723492 / 1418000001 | TPS 19472.5 | ETA 00:43:53
Time 13:35:41 | Step 1366918343 / 1418000001 | TPS 19485.1 | ETA 00:43:41
Time 13:35:51 | Step 1367112734 / 1418000001 | TPS 19439.1 | ETA 00:43:37
Time 13:36:01 | Step 1367307373 / 1418000001 | TPS 19463.9 | ETA 00:43:24
Time 13:36:11 | Step 1367501904 / 1418000001 | TPS 19452.9 | ETA 00:43:15
Time 13:36:21 | Step 1367696212 / 1418000001 | TPS 19430.8 | ETA 00:43:08
Time 13:36:31 | Step 1367890684 / 1418000001 | TPS 19447.1 | ETA 00:42:56
Time 13:36:41 | Step 1368085426 / 1418000001 | TPS 19474.1 | ETA 00:42:43
Time 13:36:51 | Step 1368280259 / 1418000001 | TPS 19483.2 | ETA 00:42:31
Time 13:37:01 | Step 1368475134 / 1418000001 | TPS 19487.4 | ETA 00:42:21
Time 13:37:11 | Step 1368670008 / 1418000001 | TPS 19487.3 | ETA 00:42:11
Time 13:37:21 | Step 1368864886 / 1418000001 | TPS 19487.7 | ETA 00:42:01
Time 13:37:31 | Step 1369059555 / 1418000001 | TPS 19466.8 | ETA 00:41:54
Time 13:37:41 | Step 1369254155 / 1418000001 | TPS 19459.9 | ETA 00:41:44
Time 13:37:51 | Step 1369448744 / 1418000001 | TPS 19458.9 | ETA 00:41:35
Time 13:38:01 | Step 1369642329 / 1418000001 | TPS 19358.4 | ETA 00:41:38
Time 13:38:11 | Step 1369834715 / 1418000001 | TPS 19238.5 | ETA 00:41:43
Time 13:38:21 | Step 1370027000 / 1418000001 | TPS 19228.4 | ETA 00:41:34
Time 13:38:31 | Step 1370221326 / 1418000001 | TPS 19432.5 | ETA 00:40:58
Time 13:38:41 | Step 1370415673 / 1418000001 | TPS 19434.6 | ETA 00:40:48
Time 13:38:51 | Step 1370609781 / 1418000001 | TPS 19410.7 | ETA 00:40:41
Time 13:39:01 | Step 1370803353 / 1418000001 | TPS 19357.2 | ETA 00:40:38
Time 13:39:11 | Step 1370997027 / 1418000001 | TPS 19367.2 | ETA 00:40:26
Time 13:39:21 | Step 1371190904 / 1418000001 | TPS 19387.6 | ETA 00:40:14
Time 13:39:31 | Step 1371385186 / 1418000001 | TPS 19428.2 | ETA 00:39:59
Time 13:39:41 | Step 1371579527 / 1418000001 | TPS 19434.1 | ETA 00:39:48
Time 13:39:51 | Step 1371774251 / 1418000001 | TPS 19472.3 | ETA 00:39:33
Time 13:40:01 | Step 1371968000 / 1418000001 | TPS 19374.8 | ETA 00:39:35
Time 13:40:11 | Step 1372162331 / 1418000001 | TPS 19433 | ETA 00:39:18
Time 13:40:21 | Step 1372356901 / 1418000001 | TPS 19456.8 | ETA 00:39:05
Time 13:40:31 | Step 1372551250 / 1418000001 | TPS 19434.8 | ETA 00:38:58
Time 13:40:41 | Step 1372745430 / 1418000001 | TPS 19418 | ETA 00:38:50
Time 13:40:51 | Step 1372939921 / 1418000001 | TPS 19449.1 | ETA 00:38:36
Time 13:41:01 | Step 1373134109 / 1418000001 | TPS 19418.7 | ETA 00:38:30
Time 13:41:11 | Step 1373327957 / 1418000001 | TPS 19384.8 | ETA 00:38:24
Time 13:41:21 | Step 1373522231 / 1418000001 | TPS 19427.3 | ETA 00:38:09
Time 13:41:31 | Step 1373717018 / 1418000001 | TPS 19478.7 | ETA 00:37:53
Time 13:41:41 | Step 1373911493 / 1418000001 | TPS 19447.5 | ETA 00:37:47
Time 13:41:51 | Step 1374105703 / 1418000001 | TPS 19421 | ETA 00:37:40
Time 13:42:01 | Step 1374299782 / 1418000001 | TPS 19407.8 | ETA 00:37:31
Time 13:42:11 | Step 1374493928 / 1418000001 | TPS 19414.6 | ETA 00:37:20
Time 13:42:21 | Step 1374688022 / 1418000001 | TPS 19409.4 | ETA 00:37:11
Time 13:42:31 | Step 1374882515 / 1418000001 | TPS 19449.2 | ETA 00:36:56
Time 13:42:41 | Step 1375076205 / 1418000001 | TPS 19369 | ETA 00:36:56
Time 13:42:51 | Step 1375270521 / 1418000001 | TPS 19431.6 | ETA 00:36:38
Time 13:43:01 | Step 1375465053 / 1418000001 | TPS 19453.1 | ETA 00:36:26
Time 13:43:11 | Step 1375659071 / 1418000001 | TPS 19401.7 | ETA 00:36:22
Time 13:43:21 | Step 1375853585 / 1418000001 | TPS 19451.4 | ETA 00:36:06
Time 13:43:31 | Step 1376047496 / 1418000001 | TPS 19391 | ETA 00:36:03
Time 13:43:41 | Step 1376240494 / 1418000001 | TPS 19299.7 | ETA 00:36:03
Time 13:43:51 | Step 1376434052 / 1418000001 | TPS 19355.8 | ETA 00:35:47
Time 13:44:01 | Step 1376627836 / 1418000001 | TPS 19378.4 | ETA 00:35:34
Time 13:44:11 | Step 1376821065 / 1418000001 | TPS 19322.8 | ETA 00:35:31
Time 13:44:21 | Step 1377014404 / 1418000001 | TPS 19333.9 | ETA 00:35:19
Time 13:44:31 | Step 1377208296 / 1418000001 | TPS 19389.2 | ETA 00:35:03
Time 13:44:41 | Step 1377401887 / 1418000001 | TPS 19359 | ETA 00:34:57
Time 13:44:51 | Step 1377596256 / 1418000001 | TPS 19436.9 | ETA 00:34:38
Time 13:45:01 | Step 1377790439 / 1418000001 | TPS 19418.2 | ETA 00:34:30
Time 13:45:11 | Step 1377984200 / 1418000001 | TPS 19376 | ETA 00:34:25
Time 13:45:21 | Step 1378178584 / 1418000001 | TPS 19438.3 | ETA 00:34:08
Time 13:45:31 | Step 1378373143 / 1418000001 | TPS 19455.9 | ETA 00:33:56
Time 13:45:41 | Step 1378567625 / 1418000001 | TPS 19448.2 | ETA 00:33:47
Time 13:45:51 | Step 1378762277 / 1418000001 | TPS 19465.2 | ETA 00:33:35
Time 13:46:01 | Step 1378957118 / 1418000001 | TPS 19484.1 | ETA 00:33:23
Time 13:46:11 | Step 1379151601 / 1418000001 | TPS 19448.3 | ETA 00:33:17
Time 13:46:21 | Step 1379345946 / 1418000001 | TPS 19434.5 | ETA 00:33:08
Time 13:46:31 | Step 1379540976 / 1418000001 | TPS 19502.9 | ETA 00:32:51
Time 13:46:41 | Step 1379735553 / 1418000001 | TPS 19457.5 | ETA 00:32:46
Time 13:46:51 | Step 1379930446 / 1418000001 | TPS 19489.2 | ETA 00:32:33
Time 13:47:01 | Step 1380124945 / 1418000001 | TPS 19449.9 | ETA 00:32:27
Time 13:47:11 | Step 1380319288 / 1418000001 | TPS 19434.3 | ETA 00:32:18
Time 13:47:21 | Step 1380513979 / 1418000001 | TPS 19469.1 | ETA 00:32:05
Time 13:47:31 | Step 1380708601 / 1418000001 | TPS 19462 | ETA 00:31:56
Time 13:47:41 | Step 1380902823 / 1418000001 | TPS 19422.1 | ETA 00:31:50
Time 13:47:51 | Step 1381096520 / 1418000001 | TPS 19369.6 | ETA 00:31:45
Time 13:48:01 | Step 1381291317 / 1418000001 | TPS 19479.7 | ETA 00:31:24
Time 13:48:11 | Step 1381485878 / 1418000001 | TPS 19456 | ETA 00:31:16
Time 13:48:21 | Step 1381680229 / 1418000001 | TPS 19435 | ETA 00:31:08
Time 13:48:31 | Step 1381874760 / 1418000001 | TPS 19453 | ETA 00:30:57
Time 13:48:41 | Step 1382068817 / 1418000001 | TPS 19405.6 | ETA 00:30:51
Time 13:48:51 | Step 1382262119 / 1418000001 | TPS 19330.2 | ETA 00:30:48
Time 13:49:01 | Step 1382455657 / 1418000001 | TPS 19353.7 | ETA 00:30:36
Time 13:49:11 | Step 1382650328 / 1418000001 | TPS 19467 | ETA 00:30:15
Time 13:49:21 | Step 1382845040 / 1418000001 | TPS 19471.2 | ETA 00:30:05
Time 13:49:31 | Step 1383039814 / 1418000001 | TPS 19477.4 | ETA 00:29:54
Time 13:49:41 | Step 1383234658 / 1418000001 | TPS 19484.3 | ETA 00:29:44
Time 13:49:51 | Step 1383429201 / 1418000001 | TPS 19454.2 | ETA 00:29:37
Time 13:50:01 | Step 1383624041 / 1418000001 | TPS 19484 | ETA 00:29:24
Time 13:50:11 | Step 1383818867 / 1418000001 | TPS 19482.5 | ETA 00:29:14
Time 13:50:21 | Step 1384013620 / 1418000001 | TPS 19475.2 | ETA 00:29:05
Time 13:50:31 | Step 1384208529 / 1418000001 | TPS 19490.9 | ETA 00:28:53
Time 13:50:41 | Step 1384403399 / 1418000001 | TPS 19486.9 | ETA 00:28:44
Time 13:50:51 | Step 1384598149 / 1418000001 | TPS 19474.9 | ETA 00:28:35
Time 13:51:01 | Step 1384792824 / 1418000001 | TPS 19467.5 | ETA 00:28:25
Time 13:51:11 | Step 1384986532 / 1418000001 | TPS 19370.8 | ETA 00:28:24
Time 13:51:21 | Step 1385179994 / 1418000001 | TPS 19346.1 | ETA 00:28:16
Time 13:51:31 | Step 1385374305 / 1418000001 | TPS 19430.9 | ETA 00:27:59
Time 13:51:41 | Step 1385568994 / 1418000001 | TPS 19468.8 | ETA 00:27:45
Time 13:51:51 | Step 1385763941 / 1418000001 | TPS 19494.6 | ETA 00:27:33
Time 13:52:01 | Step 1385958647 / 1418000001 | TPS 19470.5 | ETA 00:27:25
Time 13:52:11 | Step 1386153297 / 1418000001 | TPS 19465 | ETA 00:27:16
Time 13:52:21 | Step 1386348159 / 1418000001 | TPS 19486.1 | ETA 00:27:04
Time 13:52:31 | Step 1386542952 / 1418000001 | TPS 19479.3 | ETA 00:26:54
Time 13:52:41 | Step 1386737651 / 1418000001 | TPS 19469.9 | ETA 00:26:45
Time 13:52:51 | Step 1386932211 / 1418000001 | TPS 19456 | ETA 00:26:36
Time 13:53:01 | Step 1387126997 / 1418000001 | TPS 19478.6 | ETA 00:26:24
Time 13:53:11 | Step 1387321874 / 1418000001 | TPS 19487.6 | ETA 00:26:14
Time 13:53:21 | Step 1387516461 / 1418000001 | TPS 19458.6 | ETA 00:26:06
Time 13:53:31 | Step 1387710300 / 1418000001 | TPS 19383.8 | ETA 00:26:02
Time 13:53:41 | Step 1387903578 / 1418000001 | TPS 19327.7 | ETA 00:25:57
Time 13:53:51 | Step 1388097307 / 1418000001 | TPS 19372.9 | ETA 00:25:43
Time 13:54:01 | Step 1388290356 / 1418000001 | TPS 19304.8 | ETA 00:25:38
Time 13:54:11 | Step 1388483733 / 1418000001 | TPS 19337.7 | ETA 00:25:26
Time 13:54:21 | Step 1388677611 / 1418000001 | TPS 19387.8 | ETA 00:25:12
Time 13:54:31 | Step 1388871741 / 1418000001 | TPS 19413 | ETA 00:25:00
Time 13:54:41 | Step 1389064542 / 1418000001 | TPS 19280 | ETA 00:25:00
Time 13:54:51 | Step 1389258547 / 1418000001 | TPS 19400.4 | ETA 00:24:41
Time 13:55:01 | Step 1389453431 / 1418000001 | TPS 19488.2 | ETA 00:24:24
Time 13:55:11 | Step 1389647996 / 1418000001 | TPS 19456.5 | ETA 00:24:17
Time 13:55:21 | Step 1389842481 / 1418000001 | TPS 19448.4 | ETA 00:24:07
Time 13:55:31 | Step 1390036251 / 1418000001 | TPS 19376.9 | ETA 00:24:03
Time 13:55:41 | Step 1390230697 / 1418000001 | TPS 19444.5 | ETA 00:23:48
Time 13:55:51 | Step 1390424681 / 1418000001 | TPS 19398.3 | ETA 00:23:41
Time 13:56:01 | Step 1390618970 / 1418000001 | TPS 19428.9 | ETA 00:23:29
Time 13:56:11 | Step 1390813207 / 1418000001 | TPS 19423.6 | ETA 00:23:19
Time 13:56:21 | Step 1391007723 / 1418000001 | TPS 19451.6 | ETA 00:23:07
Time 13:56:31 | Step 1391202554 / 1418000001 | TPS 19483 | ETA 00:22:55
Time 13:56:41 | Step 1391397001 / 1418000001 | TPS 19444.4 | ETA 00:22:48
Time 13:56:51 | Step 1391591412 / 1418000001 | TPS 19441 | ETA 00:22:38
Time 13:57:01 | Step 1391785933 / 1418000001 | TPS 19452 | ETA 00:22:27
Time 13:57:11 | Step 1391980254 / 1418000001 | TPS 19432.1 | ETA 00:22:19
Time 13:57:21 | Step 1392174289 / 1418000001 | TPS 19403.4 | ETA 00:22:10
Time 13:57:31 | Step 1392367969 / 1418000001 | TPS 19367.8 | ETA 00:22:03
Time 13:57:41 | Step 1392560733 / 1418000001 | TPS 19276.4 | ETA 00:21:59
Time 13:57:51 | Step 1392755137 / 1418000001 | TPS 19440.3 | ETA 00:21:38
Time 13:58:01 | Step 1392949804 / 1418000001 | TPS 19466.6 | ETA 00:21:26
Time 13:58:11 | Step 1393143662 / 1418000001 | TPS 19385.7 | ETA 00:21:22
Time 13:58:21 | Step 1393338367 / 1418000001 | TPS 19470.5 | ETA 00:21:06
Time 13:58:31 | Step 1393533064 / 1418000001 | TPS 19469.7 | ETA 00:20:56
Time 13:58:41 | Step 1393727342 / 1418000001 | TPS 19427.8 | ETA 00:20:49
Time 13:58:51 | Step 1393921905 / 1418000001 | TPS 19456.2 | ETA 00:20:37
Time 13:59:01 | Step 1394116213 / 1418000001 | TPS 19430.7 | ETA 00:20:29
Time 13:59:11 | Step 1394310863 / 1418000001 | TPS 19465 | ETA 00:20:17
Time 13:59:21 | Step 1394505690 / 1418000001 | TPS 19482.6 | ETA 00:20:05
Time 13:59:31 | Step 1394700571 / 1418000001 | TPS 19488.1 | ETA 00:19:55
Time 13:59:41 | Step 1394895554 / 1418000001 | TPS 19498.2 | ETA 00:19:44
Time 13:59:51 | Step 1395089975 / 1418000001 | TPS 19442.1 | ETA 00:19:38
Time 14:00:01 | Step 1395284746 / 1418000001 | TPS 19477.1 | ETA 00:19:26
Time 14:00:11 | Step 1395478520 / 1418000001 | TPS 19377.4 | ETA 00:19:22
Time 14:00:21 | Step 1395673002 / 1418000001 | TPS 19448.1 | ETA 00:19:08
Time 14:00:31 | Step 1395867903 / 1418000001 | TPS 19490 | ETA 00:18:55
Time 14:00:41 | Step 1396062352 / 1418000001 | TPS 19444.9 | ETA 00:18:48
Time 14:00:51 | Step 1396256933 / 1418000001 | TPS 19458.1 | ETA 00:18:37
Time 14:01:01 | Step 1396451440 / 1418000001 | TPS 19450.7 | ETA 00:18:27
Time 14:01:11 | Step 1396646301 / 1418000001 | TPS 19486 | ETA 00:18:15
Time 14:01:21 | Step 1396840526 / 1418000001 | TPS 19422.4 | ETA 00:18:09
Time 14:01:31 | Step 1397035253 / 1418000001 | TPS 19472.7 | ETA 00:17:56
Time 14:01:41 | Step 1397230214 / 1418000001 | TPS 19496.1 | ETA 00:17:45
Time 14:01:51 | Step 1397424973 / 1418000001 | TPS 19475.9 | ETA 00:17:36
Time 14:02:01 | Step 1397619891 / 1418000001 | TPS 19491.6 | ETA 00:17:25
Time 14:02:11 | Step 1397814293 / 1418000001 | TPS 19440.2 | ETA 00:17:18
Time 14:02:21 | Step 1398008288 / 1418000001 | TPS 19399.4 | ETA 00:17:10
Time 14:02:31 | Step 1398202854 / 1418000001 | TPS 19456.6 | ETA 00:16:57
Time 14:02:41 | Step 1398397227 / 1418000001 | TPS 19437.3 | ETA 00:16:48
Time 14:02:51 | Step 1398591280 / 1418000001 | TPS 19405.3 | ETA 00:16:40
Time 14:03:01 | Step 1398785402 / 1418000001 | TPS 19412.1 | ETA 00:16:29
Time 14:03:11 | Step 1398980384 / 1418000001 | TPS 19498.2 | ETA 00:16:15
Time 14:03:21 | Step 1399174808 / 1418000001 | TPS 19442.3 | ETA 00:16:08
Time 14:03:31 | Step 1399369282 / 1418000001 | TPS 19447.3 | ETA 00:15:58
Time 14:03:41 | Step 1399562485 / 1418000001 | TPS 19320.2 | ETA 00:15:54
Time 14:03:51 | Step 1399756214 / 1418000001 | TPS 19372.8 | ETA 00:15:41
Time 14:04:01 | Step 1399950475 / 1418000001 | TPS 19426.1 | ETA 00:15:29
Time 14:04:11 | Step 1400143770 / 1418000001 | TPS 19329.3 | ETA 00:15:23
Time 14:04:21 | Step 1400336681 / 1418000001 | TPS 19291 | ETA 00:15:15
Time 14:04:31 | Step 1400529928 / 1418000001 | TPS 19324.7 | ETA 00:15:04
Time 14:04:41 | Step 1400724210 / 1418000001 | TPS 19428.2 | ETA 00:14:49
Time 14:04:51 | Step 1400918406 / 1418000001 | TPS 19419.5 | ETA 00:14:39
Time 14:05:01 | Step 1401112790 / 1418000001 | TPS 19438.3 | ETA 00:14:28
Time 14:05:11 | Step 1401307514 / 1418000001 | TPS 19472.2 | ETA 00:14:17
Time 14:05:21 | Step 1401502054 / 1418000001 | TPS 19453.9 | ETA 00:14:08
Time 14:05:31 | Step 1401695785 / 1418000001 | TPS 19373.1 | ETA 00:14:01
Time 14:05:41 | Step 1401889495 / 1418000001 | TPS 19371 | ETA 00:13:51
Time 14:05:51 | Step 1402082541 / 1418000001 | TPS 19304.6 | ETA 00:13:44
Time 14:06:01 | Step 1402276555 / 1418000001 | TPS 19401.4 | ETA 00:13:30
Time 14:06:11 | Step 1402471550 / 1418000001 | TPS 19499.4 | ETA 00:13:16
Time 14:06:21 | Step 1402666284 / 1418000001 | TPS 19473.4 | ETA 00:13:07
Time 14:06:31 | Step 1402860628 / 1418000001 | TPS 19434.3 | ETA 00:12:59
Time 14:06:41 | Step 1403054701 / 1418000001 | TPS 19406.9 | ETA 00:12:50
Time 14:06:51 | Step 1403249095 / 1418000001 | TPS 19439.4 | ETA 00:12:38
Time 14:07:01 | Step 1403444070 / 1418000001 | TPS 19497.5 | ETA 00:12:26
Time 14:07:11 | Step 1403638733 / 1418000001 | TPS 19466.2 | ETA 00:12:17
Time 14:07:21 | Step 1403833343 / 1418000001 | TPS 19460.9 | ETA 00:12:07
Time 14:07:31 | Step 1404027864 / 1418000001 | TPS 19452 | ETA 00:11:58
Time 14:07:41 | Step 1404222532 / 1418000001 | TPS 19466.7 | ETA 00:11:47
Time 14:07:51 | Step 1404417224 / 1418000001 | TPS 19469.2 | ETA 00:11:37
Time 14:08:01 | Step 1404611553 / 1418000001 | TPS 19432.9 | ETA 00:11:28
Time 14:08:11 | Step 1404805515 / 1418000001 | TPS 19396.2 | ETA 00:11:20
Time 14:08:21 | Step 1404998838 / 1418000001 | TPS 19332.2 | ETA 00:11:12
Time 14:08:31 | Step 1405193085 / 1418000001 | TPS 19424.5 | ETA 00:10:59
Time 14:08:41 | Step 1405387076 / 1418000001 | TPS 19399 | ETA 00:10:50
Time 14:08:51 | Step 1405581195 / 1418000001 | TPS 19411.9 | ETA 00:10:39
Time 14:09:01 | Step 1405774908 / 1418000001 | TPS 19371.2 | ETA 00:10:31
Time 14:09:11 | Step 1405968646 / 1418000001 | TPS 19373.7 | ETA 00:10:21
Time 14:09:21 | Step 1406162852 / 1418000001 | TPS 19420.6 | ETA 00:10:09
Time 14:09:31 | Step 1406357391 / 1418000001 | TPS 19453.9 | ETA 00:09:58
Time 14:09:41 | Step 1406551961 / 1418000001 | TPS 19457 | ETA 00:09:48
Time 14:09:51 | Step 1406746469 / 1418000001 | TPS 19450.7 | ETA 00:09:38
Time 14:10:01 | Step 1406940690 / 1418000001 | TPS 19422.1 | ETA 00:09:29
Time 14:10:11 | Step 1407135132 / 1418000001 | TPS 19444.1 | ETA 00:09:18
Time 14:10:21 | Step 1407329518 / 1418000001 | TPS 19438.6 | ETA 00:09:08
Time 14:10:31 | Step 1407523646 / 1418000001 | TPS 19412.7 | ETA 00:08:59
Time 14:10:41 | Step 1407717070 / 1418000001 | TPS 19342.4 | ETA 00:08:51
Time 14:10:51 | Step 1407910585 / 1418000001 | TPS 19351.4 | ETA 00:08:41
Time 14:11:01 | Step 1408104071 / 1418000001 | TPS 19348.6 | ETA 00:08:31
Time 14:11:11 | Step 1408298391 / 1418000001 | TPS 19432 | ETA 00:08:19
Time 14:11:21 | Step 1408492309 / 1418000001 | TPS 19391.8 | ETA 00:08:10
Time 14:11:31 | Step 1408686935 / 1418000001 | TPS 19462.6 | ETA 00:07:58
Time 14:11:41 | Step 1408881379 / 1418000001 | TPS 19444.2 | ETA 00:07:48
Time 14:11:51 | Step 1409075849 / 1418000001 | TPS 19447 | ETA 00:07:38
Time 14:12:01 | Step 1409270662 / 1418000001 | TPS 19481.3 | ETA 00:07:28
Time 14:12:11 | Step 1409465144 / 1418000001 | TPS 19448.2 | ETA 00:07:18
Time 14:12:21 | Step 1409659933 / 1418000001 | TPS 19478.9 | ETA 00:07:08
Time 14:12:31 | Step 1409854962 / 1418000001 | TPS 19502.9 | ETA 00:06:57
Time 14:12:41 | Step 1410049361 / 1418000001 | TPS 19439.9 | ETA 00:06:48
Time 14:12:51 | Step 1410243658 / 1418000001 | TPS 19429.7 | ETA 00:06:39
Time 14:13:01 | Step 1410437230 / 1418000001 | TPS 19357.2 | ETA 00:06:30
Time 14:13:11 | Step 1410630514 / 1418000001 | TPS 19328.3 | ETA 00:06:21
Time 14:13:21 | Step 1410823510 / 1418000001 | TPS 19299.6 | ETA 00:06:11
Time 14:13:31 | Step 1411017514 / 1418000001 | TPS 19400.4 | ETA 00:05:59
Time 14:13:41 | Step 1411212224 / 1418000001 | TPS 19470.9 | ETA 00:05:48
Time 14:13:51 | Step 1411406639 / 1418000001 | TPS 19441.5 | ETA 00:05:39
Time 14:14:01 | Step 1411601563 / 1418000001 | TPS 19492.4 | ETA 00:05:28
Time 14:14:11 | Step 1411795172 / 1418000001 | TPS 19360.7 | ETA 00:05:20
Time 14:14:21 | Step 1411988901 / 1418000001 | TPS 19372.8 | ETA 00:05:10
Time 14:14:31 | Step 1412181700 / 1418000001 | TPS 19279.9 | ETA 00:05:01
Time 14:14:41 | Step 1412375617 / 1418000001 | TPS 19391.7 | ETA 00:04:50
Time 14:14:51 | Step 1412569609 / 1418000001 | TPS 19399 | ETA 00:04:39
Time 14:15:01 | Step 1412764027 / 1418000001 | TPS 19441.8 | ETA 00:04:29
Time 14:15:11 | Step 1412957576 / 1418000001 | TPS 19354.9 | ETA 00:04:20
Time 14:15:21 | Step 1413151402 / 1418000001 | TPS 19382.5 | ETA 00:04:10
Time 14:15:31 | Step 1413345685 / 1418000001 | TPS 19428.2 | ETA 00:03:59
Time 14:15:41 | Step 1413539577 / 1418000001 | TPS 19389.2 | ETA 00:03:50
Time 14:15:51 | Step 1413733663 / 1418000001 | TPS 19408.5 | ETA 00:03:39
Time 14:16:01 | Step 1413928021 / 1418000001 | TPS 19435.7 | ETA 00:03:29
Time 14:16:11 | Step 1414122398 / 1418000001 | TPS 19437.7 | ETA 00:03:19
Time 14:16:21 | Step 1414316884 / 1418000001 | TPS 19448.6 | ETA 00:03:09
Time 14:16:31 | Step 1414511333 / 1418000001 | TPS 19444.9 | ETA 00:02:59
Time 14:16:41 | Step 1414705513 / 1418000001 | TPS 19418 | ETA 00:02:49
Time 14:16:51 | Step 1414899563 / 1418000001 | TPS 19404.9 | ETA 00:02:39
Time 14:17:01 | Step 1415094130 / 1418000001 | TPS 19456.7 | ETA 00:02:29
Time 14:17:11 | Step 1415288183 / 1418000001 | TPS 19405.3 | ETA 00:02:19
Time 14:17:21 | Step 1415482605 / 1418000001 | TPS 19442.1 | ETA 00:02:09
Time 14:17:31 | Step 1415676982 / 1418000001 | TPS 19437.7 | ETA 00:01:59
Time 14:17:41 | Step 1415871240 / 1418000001 | TPS 19425.7 | ETA 00:01:49
Time 14:17:51 | Step 1416065922 / 1418000001 | TPS 19468.2 | ETA 00:01:39
Time 14:18:01 | Step 1416260265 / 1418000001 | TPS 19434.2 | ETA 00:01:29
Time 14:18:11 | Step 1416454225 / 1418000001 | TPS 19395.9 | ETA 00:01:19
Time 14:18:21 | Step 1416648092 / 1418000001 | TPS 19386.7 | ETA 00:01:09
Time 14:18:31 | Step 1416842180 / 1418000001 | TPS 19408.7 | ETA 00:00:59
Time 14:18:41 | Step 1417036884 / 1418000001 | TPS 19470.3 | ETA 00:00:49
Time 14:18:51 | Step 1417231461 / 1418000001 | TPS 19457.7 | ETA 00:00:39
Time 14:19:01 | Step 1417426360 / 1418000001 | TPS 19489.9 | ETA 00:00:29
Time 14:19:11 | Step 1417621058 / 1418000001 | TPS 19469.8 | ETA 00:00:19
Time 14:19:21 | Step 1417815833 / 1418000001 | TPS 19477.5 | ETA 00:00:09
Time 14:19:31 | Step 1418000001 / 1418000001 | TPS 19392.4 | ETA 00:00:00
Average TPS: 19391.2
---------
-- Neighborlist stats:
79102436 normal updates / 3333334 forced updates / 0 dangerous updates
n_neigh_min: 0 / n_neigh_max: 14 / n_neigh_avg: 12.7721
shortest rebuild period: 8
-- Cell list stats:
Dimension: 42, 42, 42
n_min    : 0 / n_max: 7 / n_avg: 0.0911079
** run complete **
