HOOMD-blue 2.9.6 CUDA (11.1) SINGLE SSE SSE2 
Compiled: 05/10/21
Copyright (c) 2009-2019 The Regents of the University of Michigan.
-----
You are using HOOMD-blue. Please cite the following:
* J A Anderson, J Glaser, and S C Glotzer. "HOOMD-blue: A Python package for
  high-performance molecular dynamics and hard particle Monte Carlo
  simulations", Computational Materials Science 173 (2020) 109363
-----
HOOMD-blue is running on the following GPU(s):
 [0] NVIDIA H100 80GB HBM3 132 SM_9.0 @ 1.98 GHz, 81007 MiB DRAM, MNG
Running on the GPU
Charges (in mV) are:
[-54.0, 44.0]
[95.0, 105.0]
Particle types: ['N', 'P']
Radius of N, P and ionic radii(s):  [95.0, 105.0, 99.75]
radiusN: 95.0
radiusP: 105.0
Electrostatic prefactors are:  {('N', 'N'): 299.83507046393714, ('N', 'P'): -256.52556028581284, ('P', 'P'): 220.02192305215914}
Steric prefactors are:  {('N', 'N'): 368.3741785809289, ('N', 'P'): 387.76229324308304, ('P', 'P'): 407.15040790523716}
Lattice_type:  sc
Lattice site is: P
Putting satellite particles at a distance of 286.000000 from center particles
num_satellite_per_center: 1
snapshot_creation.py:075  |      center_unit_cell = lattice(a=lattice_spacing*2*radius_latticesite)
center_in_uc: 1
satellite_in_uc: 1
Total number of particles in each unit cell: 2
Total lattice spacing: 885.78
Setting mass N: 0.740633 (mass P: 1.000000)
['P', 'N']
Total number of lattice sites: 6750
[[-6200.45996094 -6200.45996094 -6200.45996094]
 [-6200.45996094 -5914.45996094 -6200.45996094]
 [-6200.45996094 -6200.45996094 -5314.68017578]
 ...
 [ 6200.45947266  6486.46044922  5314.68017578]
 [ 6200.45947266  6200.45947266  6200.45947266]
 [ 6200.45947266  6486.46044922  6200.45947266]]
Seed positions:
None
snapshot_creation.py:172  |      system=hoomd.init.read_snapshot(snapshot)
notice(2): Group "all" created containing 6750 particles
Box size:
Box: Lx=13286.7001953125 Ly=13286.7001953125 Lz=13286.7001953125 xy=0.0 xz=0.0 yz=0.0 dimensions=3
max_x,max_y,max_z
6643.35009765625 6643.35009765625 6643.35009765625
snapshot_creation.py:183  |          hoomd.update.box_resize(Lx = 2.*max_x+8*max_radius, Ly = 2.*max_y+8*max_radius, Lz=2.*max_z+8*max_radius, period=None,scale_particles=False)
Updated box size in presence of closed walls:
Box: Lx=14126.7001953125 Ly=14126.7001953125 Lz=14126.7001953125 xy=0.0 xz=0.0 yz=0.0 dimensions=3
Number of particles in system before adding any seed crystal:  6750
Removing lattice particles that overlap with particles of the seed crystal.........
add_interactions.py:006  |  nl = hoomd.md.nlist.cell()
add_interactions.py:007  |  nl.reset_exclusions(exclusions = ['1-2', 'body','constraint'])
notice(2): -- Neighborlist exclusion statistics -- :
notice(2): Particles with 0 exclusions             : 6750
notice(2): Neighbors included by diameter          : no
notice(2): Neighbors excluded when in the same body: no
Turning on closed walls along x/y/z with max_z: 7063.35009765625
add_interactions.py:032  |      wall_force = hoomd.md.wall.slj(wall_group,r_cut=max_radius*(2.0**(1.0/6.0)))
notice(2): Notice: slj set d_max=210.0
add_interactions.py:033  |      wall_force.force_coeff.set('N',epsilon=1,sigma=radiusN,alpha=0,r_cut=radiusN*(2.0**(1.0/6.0)))
add_interactions.py:034  |      wall_force.force_coeff.set('P',epsilon=1,sigma=radiusP,alpha=0,r_cut=radiusP*(2.0**(1.0/6.0)))
add_interactions.py:057  |  table = hoomd.md.pair.table(width=5000,nlist=nl)
*******************************************************************************************************************************************************************************
Setting potential for pair ('N', 'N') with radius_sum 190.0
add_interactions.py:080  |          table.pair_coeff.set(typei,typej, func=screened_potential_shifted_force,rmin=1.00005*radius_sum, rmax=potential_range,coeff=dict(radius_sum=radius_sum, steric_prefactor=steric_prefactors[key],electrostatic_prefactor=electrostatic_prefactors[key],H=sum_brush_lengths,d=debye_length),)
*******************************************************************************************************************************************************************************
Setting potential for pair ('N', 'P') with radius_sum 200.0
add_interactions.py:080  |          table.pair_coeff.set(typei,typej, func=screened_potential_shifted_force,rmin=1.00005*radius_sum, rmax=potential_range,coeff=dict(radius_sum=radius_sum, steric_prefactor=steric_prefactors[key],electrostatic_prefactor=electrostatic_prefactors[key],H=sum_brush_lengths,d=debye_length),)
*******************************************************************************************************************************************************************************
Setting potential for pair ('P', 'P') with radius_sum 210.0
add_interactions.py:080  |          table.pair_coeff.set(typei,typej, func=screened_potential_shifted_force,rmin=1.00005*radius_sum, rmax=potential_range,coeff=dict(radius_sum=radius_sum, steric_prefactor=steric_prefactors[key],electrostatic_prefactor=electrostatic_prefactors[key],H=sum_brush_lengths,d=debye_length),)
i,j,key,potential_min, potential_min_location
(0, 0, ('N', 'N'), 0.0, 302.31199999997)
(0, 1, ('N', 'P'), -8.770556453748068, 218.40506759999997)
(1, 1, ('P', 'P'), 0.0, 322.3120000000294)
run_dlvo_spheres_metal.py:011  |  all = hoomd.group.all()
run_dlvo_spheres_metal.py:000  |  from add_interactions import *

if temperature.find(':')>0:
    temp_list = np.array( temperature.split(':') ,dtype=float)
    assert len(temp_list)%2==0 and len(temp_list)>=0,"must give an even number of temperature arguments"
    temp_list = [tuple(x) for x in temp_list.reshape((-1,2))]
    temperature = hoomd.variant.linear_interp(points=temp_list)
else:
    temperature = float(temperature)

all = hoomd.group.all()


hoomd.analyze.log(filename=outputlogfile,
mode: langevin
run_dlvo_spheres_metal.py:029  |      hoomd.md.integrate.mode_standard(dt=dt)
run_dlvo_spheres_metal.py:030  |      ld=hoomd.md.integrate.langevin(group=all, kT=temperature, seed=seed)
notice(2): integrate.langevin/bd is using specified gamma values
Using gamma value as: 0.001
run_dlvo_spheres_metal.py:033  |          ld.set_gamma(particle_type,gamma)
run_dlvo_spheres_metal.py:033  |          ld.set_gamma(particle_type,gamma)
run_dlvo_spheres_metal.py:057  |  hoomd.dump.gsd(outputgsdfile, period=dump_frequency, group=all, overwrite=True,dynamic=['attribute','momentum','topology'])
run_dlvo_spheres_metal.py:058  |  hoomd.run(nsteps)
** starting run **
Time 00:00:11 | Step 241159 / 1000000001 | TPS 24115.9 | ETA 11:30:56
Time 00:00:21 | Step 485249 / 1000000001 | TPS 24408.9 | ETA 11:22:28
Time 00:00:31 | Step 729186 / 1000000001 | TPS 24393.7 | ETA 11:22:44
Time 00:00:41 | Step 972305 / 1000000001 | TPS 24311.9 | ETA 11:24:52
Time 00:00:51 | Step 1215739 / 1000000001 | TPS 24343.3 | ETA 11:23:49
Time 00:01:01 | Step 1459637 / 1000000001 | TPS 24389.6 | ETA 11:22:21
Time 00:01:11 | Step 1702654 / 1000000001 | TPS 24301.7 | ETA 11:24:39
Time 00:01:21 | Step 1946305 / 1000000001 | TPS 24365 | ETA 11:22:42
Time 00:01:31 | Step 2189264 / 1000000001 | TPS 24295.9 | ETA 11:24:29
Time 00:01:41 | Step 2433465 / 1000000001 | TPS 24420.1 | ETA 11:20:50
Time 00:01:51 | Step 2677447 / 1000000001 | TPS 24398.1 | ETA 11:21:16
Time 00:02:01 | Step 2920865 / 1000000001 | TPS 24341.7 | ETA 11:22:41
Time 00:02:11 | Step 3164268 / 1000000001 | TPS 24340.3 | ETA 11:22:34
Time 00:02:21 | Step 3407226 / 1000000001 | TPS 24295.6 | ETA 11:23:39
Time 00:02:31 | Step 3648932 / 1000000001 | TPS 24170.6 | ETA 11:27:01
Time 00:02:41 | Step 3891997 / 1000000001 | TPS 24306.5 | ETA 11:23:01
Time 00:02:51 | Step 4134658 / 1000000001 | TPS 24266 | ETA 11:23:59
Time 00:03:01 | Step 4377096 / 1000000001 | TPS 24243.7 | ETA 11:24:27
Time 00:03:11 | Step 4619776 / 1000000001 | TPS 24268 | ETA 11:23:36
Time 00:03:21 | Step 4862538 / 1000000001 | TPS 24276.2 | ETA 11:23:12
Time 00:03:31 | Step 5105182 / 1000000001 | TPS 24264.3 | ETA 11:23:22
Time 00:03:41 | Step 5348225 / 1000000001 | TPS 24304.2 | ETA 11:22:05
Time 00:03:51 | Step 5590414 / 1000000001 | TPS 24218.8 | ETA 11:24:19
Time 00:04:01 | Step 5834165 / 1000000001 | TPS 24375 | ETA 11:19:46
Time 00:04:11 | Step 6076822 / 1000000001 | TPS 24265.7 | ETA 11:22:40
Time 00:04:21 | Step 6318826 / 1000000001 | TPS 24200.4 | ETA 11:24:20
Time 00:04:31 | Step 6560947 / 1000000001 | TPS 24212 | ETA 11:23:50
Time 00:04:41 | Step 6802335 / 1000000001 | TPS 24138.8 | ETA 11:25:45
Time 00:04:51 | Step 7044775 / 1000000001 | TPS 24244 | ETA 11:22:36
Time 00:05:01 | Step 7285442 / 1000000001 | TPS 24066.5 | ETA 11:27:28
Time 00:05:11 | Step 7517703 / 1000000001 | TPS 23226.1 | ETA 11:52:11
Time 00:05:21 | Step 7744824 / 1000000001 | TPS 22712.1 | ETA 12:08:08
Time 00:05:31 | Step 7982167 / 1000000001 | TPS 23734.2 | ETA 11:36:36
Time 00:05:41 | Step 8212833 / 1000000001 | TPS 23066.5 | ETA 11:56:36
Time 00:05:51 | Step 8447659 / 1000000001 | TPS 23482.6 | ETA 11:43:44
Time 00:06:01 | Step 8678628 / 1000000001 | TPS 23096.8 | ETA 11:55:20
Time 00:06:11 | Step 8905950 / 1000000001 | TPS 22732.2 | ETA 12:06:38
Time 00:06:21 | Step 9134365 / 1000000001 | TPS 22841.5 | ETA 12:03:00
Time 00:06:31 | Step 9354808 / 1000000001 | TPS 22044.2 | ETA 12:28:58
Time 00:06:41 | Step 9571719 / 1000000001 | TPS 21691 | ETA 12:41:00
Time 00:06:51 | Step 9785576 / 1000000001 | TPS 21385.6 | ETA 12:51:42
Time 00:07:01 | Step 9997385 / 1000000001 | TPS 21180.9 | ETA 12:59:00
Time 00:07:11 | Step 10205876 / 1000000001 | TPS 20849 | ETA 13:11:14
Time 00:07:21 | Step 10410985 / 1000000001 | TPS 20510.8 | ETA 13:24:07
Time 00:07:31 | Step 10617268 / 1000000001 | TPS 20628.3 | ETA 13:19:22
Time 00:07:41 | Step 10824091 / 1000000001 | TPS 20682.2 | ETA 13:17:07
Time 00:07:51 | Step 11027210 / 1000000001 | TPS 20311.8 | ETA 13:31:29
Time 00:08:01 | Step 11233858 / 1000000001 | TPS 20664.8 | ETA 13:17:27
Time 00:08:11 | Step 11441022 / 1000000001 | TPS 20716.4 | ETA 13:15:18
Time 00:08:21 | Step 11642006 / 1000000001 | TPS 20098.3 | ETA 13:39:36
Time 00:08:31 | Step 11841931 / 1000000001 | TPS 19992.4 | ETA 13:43:46
Time 00:08:41 | Step 12042477 / 1000000001 | TPS 20054.4 | ETA 13:41:03
Time 00:08:51 | Step 12243120 / 1000000001 | TPS 20064.3 | ETA 13:40:29
Time 00:09:01 | Step 12442810 / 1000000001 | TPS 19968.9 | ETA 13:44:14
Time 00:09:11 | Step 12642769 / 1000000001 | TPS 19995.8 | ETA 13:42:58
Time 00:09:21 | Step 12843235 / 1000000001 | TPS 20046.5 | ETA 13:40:43
Time 00:09:31 | Step 13041971 / 1000000001 | TPS 19873.6 | ETA 13:47:41
Time 00:09:41 | Step 13240553 / 1000000001 | TPS 19858.2 | ETA 13:48:10
Time 00:09:51 | Step 13439231 / 1000000001 | TPS 19867.8 | ETA 13:47:36
Time 00:10:01 | Step 13638317 / 1000000001 | TPS 19908.5 | ETA 13:45:44
Time 00:10:11 | Step 13836646 / 1000000001 | TPS 19832.9 | ETA 13:48:43
Time 00:10:21 | Step 14034846 / 1000000001 | TPS 19820 | ETA 13:49:06
Time 00:10:31 | Step 14233670 / 1000000001 | TPS 19882.4 | ETA 13:46:19
Time 00:10:41 | Step 14432340 / 1000000001 | TPS 19867 | ETA 13:46:48
Time 00:10:51 | Step 14631659 / 1000000001 | TPS 19931.9 | ETA 13:43:56
Time 00:11:01 | Step 14830557 / 1000000001 | TPS 19889.8 | ETA 13:45:31
Time 00:11:11 | Step 15029267 / 1000000001 | TPS 19870.9 | ETA 13:46:08
Time 00:11:21 | Step 15227556 / 1000000001 | TPS 19828.8 | ETA 13:47:43
Time 00:11:31 | Step 15425623 / 1000000001 | TPS 19806.6 | ETA 13:48:29
Time 00:11:41 | Step 15623701 / 1000000001 | TPS 19807.4 | ETA 13:48:17
Time 00:11:51 | Step 15822165 / 1000000001 | TPS 19846.4 | ETA 13:46:29
Time 00:12:01 | Step 16020186 / 1000000001 | TPS 19802 | ETA 13:48:11
Time 00:12:11 | Step 16218470 / 1000000001 | TPS 19828.4 | ETA 13:46:54
Time 00:12:21 | Step 16417668 / 1000000001 | TPS 19919.7 | ETA 13:42:57
Time 00:12:31 | Step 16616663 / 1000000001 | TPS 19899.5 | ETA 13:43:37
Time 00:12:41 | Step 16815695 / 1000000001 | TPS 19903.2 | ETA 13:43:18
Time 00:12:51 | Step 17014307 / 1000000001 | TPS 19861.1 | ETA 13:44:52
Time 00:13:01 | Step 17212732 / 1000000001 | TPS 19842.5 | ETA 13:45:29
Time 00:13:11 | Step 17410816 / 1000000001 | TPS 19808.3 | ETA 13:46:44
Time 00:13:21 | Step 17608928 / 1000000001 | TPS 19811.2 | ETA 13:46:27
Time 00:13:31 | Step 17807508 / 1000000001 | TPS 19857.9 | ETA 13:44:20
Time 00:13:41 | Step 18006370 / 1000000001 | TPS 19886.1 | ETA 13:43:00
Time 00:13:51 | Step 18204899 / 1000000001 | TPS 19852.9 | ETA 13:44:13
Time 00:14:01 | Step 18403572 / 1000000001 | TPS 19867.3 | ETA 13:43:27
Time 00:14:11 | Step 18602019 / 1000000001 | TPS 19844.7 | ETA 13:44:13
Time 00:14:21 | Step 18800354 / 1000000001 | TPS 19833.4 | ETA 13:44:32
Time 00:14:31 | Step 18998741 / 1000000001 | TPS 19838.7 | ETA 13:44:08
Time 00:14:41 | Step 19197242 / 1000000001 | TPS 19850.1 | ETA 13:43:30
Time 00:14:51 | Step 19395625 / 1000000001 | TPS 19838.2 | ETA 13:43:50
Time 00:15:01 | Step 19594087 / 1000000001 | TPS 19846.2 | ETA 13:43:20
Time 00:15:11 | Step 19792504 / 1000000001 | TPS 19841.6 | ETA 13:43:21
Time 00:15:21 | Step 19990906 / 1000000001 | TPS 19840.2 | ETA 13:43:15
Time 00:15:31 | Step 20189276 / 1000000001 | TPS 19836.9 | ETA 13:43:13
Time 00:15:41 | Step 20387495 / 1000000001 | TPS 19821.8 | ETA 13:43:40
Time 00:15:51 | Step 20585764 / 1000000001 | TPS 19826.9 | ETA 13:43:18
Time 00:16:01 | Step 20784301 / 1000000001 | TPS 19853.4 | ETA 13:42:02
Time 00:16:11 | Step 20982809 / 1000000001 | TPS 19850.8 | ETA 13:41:58
Time 00:16:21 | Step 21181122 / 1000000001 | TPS 19831.3 | ETA 13:42:37
Time 00:16:31 | Step 21379386 / 1000000001 | TPS 19826.3 | ETA 13:42:39
Time 00:16:41 | Step 21577667 / 1000000001 | TPS 19828.1 | ETA 13:42:25
Time 00:16:51 | Step 21776221 / 1000000001 | TPS 19855.2 | ETA 13:41:07
Time 00:17:01 | Step 21974664 / 1000000001 | TPS 19844.2 | ETA 13:41:25
Time 00:17:11 | Step 22172631 / 1000000001 | TPS 19796.6 | ETA 13:43:13
Time 00:17:21 | Step 22371160 / 1000000001 | TPS 19852.9 | ETA 13:40:43
Time 00:17:31 | Step 22569451 / 1000000001 | TPS 19829 | ETA 13:41:32
Time 00:17:41 | Step 22767795 / 1000000001 | TPS 19834.3 | ETA 13:41:09
Time 00:17:51 | Step 22966270 / 1000000001 | TPS 19847.4 | ETA 13:40:27
Time 00:18:01 | Step 23164587 / 1000000001 | TPS 19831.7 | ETA 13:40:56
Time 00:18:11 | Step 23362983 / 1000000001 | TPS 19839.6 | ETA 13:40:26
Time 00:18:21 | Step 23561235 / 1000000001 | TPS 19825.2 | ETA 13:40:52
Time 00:18:31 | Step 23759785 / 1000000001 | TPS 19855 | ETA 13:39:28
Time 00:18:41 | Step 23958080 / 1000000001 | TPS 19829.5 | ETA 13:40:21
Time 00:18:51 | Step 24156368 / 1000000001 | TPS 19828.7 | ETA 13:40:13
Time 00:19:01 | Step 24355047 / 1000000001 | TPS 19867.8 | ETA 13:38:26
Time 00:19:11 | Step 24553446 / 1000000001 | TPS 19839.9 | ETA 13:39:26
Time 00:19:21 | Step 24751873 / 1000000001 | TPS 19842.6 | ETA 13:39:09
Time 00:19:31 | Step 24949727 / 1000000001 | TPS 19785.3 | ETA 13:41:21
Time 00:19:41 | Step 25148412 / 1000000001 | TPS 19868.5 | ETA 13:37:45
Time 00:19:51 | Step 25346913 / 1000000001 | TPS 19850 | ETA 13:38:20
Time 00:20:01 | Step 25545194 / 1000000001 | TPS 19828 | ETA 13:39:05
Time 00:20:11 | Step 25743563 / 1000000001 | TPS 19836.9 | ETA 13:38:33
Time 00:20:21 | Step 25941944 / 1000000001 | TPS 19838 | ETA 13:38:20
Time 00:20:31 | Step 26140153 / 1000000001 | TPS 19820.9 | ETA 13:38:53
Time 00:20:41 | Step 26338452 / 1000000001 | TPS 19829.9 | ETA 13:38:20
Time 00:20:51 | Step 26536605 / 1000000001 | TPS 19815.1 | ETA 13:38:47
Time 00:21:01 | Step 26735027 / 1000000001 | TPS 19842.1 | ETA 13:37:30
Time 00:21:11 | Step 26933392 / 1000000001 | TPS 19836.4 | ETA 13:37:34
Time 00:21:21 | Step 27131700 / 1000000001 | TPS 19830.8 | ETA 13:37:38
Time 00:21:31 | Step 27330053 / 1000000001 | TPS 19835.3 | ETA 13:37:17
Time 00:21:41 | Step 27528231 / 1000000001 | TPS 19817.8 | ETA 13:37:50
Time 00:21:51 | Step 27726294 / 1000000001 | TPS 19806.2 | ETA 13:38:09
Time 00:22:01 | Step 27924535 / 1000000001 | TPS 19824.1 | ETA 13:37:15
Time 00:22:11 | Step 28121340 / 1000000001 | TPS 19680.5 | ETA 13:43:02
Time 00:22:21 | Step 28319601 / 1000000001 | TPS 19826 | ETA 13:36:50
Time 00:22:31 | Step 28518026 / 1000000001 | TPS 19842.5 | ETA 13:35:59
Time 00:22:41 | Step 28716302 / 1000000001 | TPS 19827.6 | ETA 13:36:26
Time 00:22:51 | Step 28914482 / 1000000001 | TPS 19818 | ETA 13:36:40
Time 00:23:01 | Step 29112655 / 1000000001 | TPS 19817.2 | ETA 13:36:32
Time 00:23:11 | Step 29310830 / 1000000001 | TPS 19817.5 | ETA 13:36:21
Time 00:23:21 | Step 29509277 / 1000000001 | TPS 19844.6 | ETA 13:35:04
Time 00:23:31 | Step 29707764 / 1000000001 | TPS 19848.6 | ETA 13:34:44
Time 00:23:41 | Step 29906446 / 1000000001 | TPS 19868.1 | ETA 13:33:46
Time 00:23:51 | Step 30104772 / 1000000001 | TPS 19832.6 | ETA 13:35:04
Time 00:24:01 | Step 30303292 / 1000000001 | TPS 19852 | ETA 13:34:06
Time 00:24:11 | Step 30501701 / 1000000001 | TPS 19840.8 | ETA 13:34:23
Time 00:24:21 | Step 30699968 / 1000000001 | TPS 19826.6 | ETA 13:34:48
Time 00:24:31 | Step 30898501 / 1000000001 | TPS 19853.3 | ETA 13:33:33
Time 00:24:41 | Step 31096796 / 1000000001 | TPS 19829.5 | ETA 13:34:21
Time 00:24:51 | Step 31295149 / 1000000001 | TPS 19835.1 | ETA 13:33:57
Time 00:25:01 | Step 31493483 / 1000000001 | TPS 19833.3 | ETA 13:33:52
Time 00:25:11 | Step 31691724 / 1000000001 | TPS 19824 | ETA 13:34:05
Time 00:25:21 | Step 31889831 / 1000000001 | TPS 19810.6 | ETA 13:34:28
Time 00:25:31 | Step 32087609 / 1000000001 | TPS 19777.6 | ETA 13:35:39
Time 00:25:41 | Step 32285963 / 1000000001 | TPS 19835.3 | ETA 13:33:07
Time 00:25:51 | Step 32484043 / 1000000001 | TPS 19808 | ETA 13:34:04
Time 00:26:01 | Step 32682006 / 1000000001 | TPS 19796.3 | ETA 13:34:23
Time 00:26:11 | Step 32880403 / 1000000001 | TPS 19839.6 | ETA 13:32:26
Time 00:26:21 | Step 33078813 / 1000000001 | TPS 19841 | ETA 13:32:13
Time 00:26:31 | Step 33277600 / 1000000001 | TPS 19878.6 | ETA 13:30:31
Time 00:26:41 | Step 33476242 / 1000000001 | TPS 19864.2 | ETA 13:30:56
Time 00:26:51 | Step 33674558 / 1000000001 | TPS 19831.6 | ETA 13:32:06
Time 00:27:01 | Step 33873163 / 1000000001 | TPS 19860.5 | ETA 13:30:45
Time 00:27:11 | Step 34071219 / 1000000001 | TPS 19805.5 | ETA 13:32:50
Time 00:27:21 | Step 34269547 / 1000000001 | TPS 19832.7 | ETA 13:31:33
Time 00:27:31 | Step 34467865 / 1000000001 | TPS 19831.8 | ETA 13:31:26
Time 00:27:41 | Step 34666070 / 1000000001 | TPS 19820.4 | ETA 13:31:43
Time 00:27:51 | Step 34864780 / 1000000001 | TPS 19870.9 | ETA 13:29:30
Time 00:28:01 | Step 35063028 / 1000000001 | TPS 19824.8 | ETA 13:31:13
Time 00:28:11 | Step 35261669 / 1000000001 | TPS 19864 | ETA 13:29:27
Time 00:28:21 | Step 35460003 / 1000000001 | TPS 19833.4 | ETA 13:30:32
Time 00:28:31 | Step 35658161 / 1000000001 | TPS 19815.8 | ETA 13:31:05
Time 00:28:41 | Step 35856336 / 1000000001 | TPS 19817.3 | ETA 13:30:51
Time 00:28:51 | Step 36052765 / 1000000001 | TPS 19642.8 | ETA 13:37:53
Time 00:29:01 | Step 36251284 / 1000000001 | TPS 19851.8 | ETA 13:29:07
Time 00:29:11 | Step 36449558 / 1000000001 | TPS 19827.2 | ETA 13:29:57
Time 00:29:21 | Step 36648196 / 1000000001 | TPS 19863.7 | ETA 13:28:17
Time 00:29:31 | Step 36846831 / 1000000001 | TPS 19863.4 | ETA 13:28:08
Time 00:29:41 | Step 37045282 / 1000000001 | TPS 19845 | ETA 13:28:43
Time 00:29:51 | Step 37244092 / 1000000001 | TPS 19881 | ETA 13:27:05
Time 00:30:01 | Step 37442643 / 1000000001 | TPS 19855.1 | ETA 13:27:59
Time 00:30:11 | Step 37641123 / 1000000001 | TPS 19848 | ETA 13:28:06
Time 00:30:21 | Step 37839849 / 1000000001 | TPS 19872.6 | ETA 13:26:56
Time 00:30:31 | Step 38038465 / 1000000001 | TPS 19861.5 | ETA 13:27:13
Time 00:30:41 | Step 38237328 / 1000000001 | TPS 19886.2 | ETA 13:26:03
Time 00:30:51 | Step 38436044 / 1000000001 | TPS 19871.6 | ETA 13:26:28
Time 00:31:01 | Step 38634575 / 1000000001 | TPS 19853.1 | ETA 13:27:04
Time 00:31:11 | Step 38833234 / 1000000001 | TPS 19865.9 | ETA 13:26:22
Time 00:31:21 | Step 39031671 / 1000000001 | TPS 19843.6 | ETA 13:27:07
Time 00:31:31 | Step 39230298 / 1000000001 | TPS 19862.7 | ETA 13:26:10
Time 00:31:41 | Step 39429046 / 1000000001 | TPS 19874.7 | ETA 13:25:31
Time 00:31:51 | Step 39627743 / 1000000001 | TPS 19869.6 | ETA 13:25:33
Time 00:32:01 | Step 39826689 / 1000000001 | TPS 19894.5 | ETA 13:24:23
Time 00:32:11 | Step 40025336 / 1000000001 | TPS 19864.5 | ETA 13:25:26
Time 00:32:21 | Step 40223950 / 1000000001 | TPS 19861.3 | ETA 13:25:23
Time 00:32:31 | Step 40422508 / 1000000001 | TPS 19855.7 | ETA 13:25:27
Time 00:32:41 | Step 40621176 / 1000000001 | TPS 19866.7 | ETA 13:24:50
Time 00:32:51 | Step 40819820 / 1000000001 | TPS 19864.4 | ETA 13:24:46
Time 00:33:01 | Step 41018497 / 1000000001 | TPS 19867.6 | ETA 13:24:28
Time 00:33:11 | Step 41216949 / 1000000001 | TPS 19845.2 | ETA 13:25:13
Time 00:33:21 | Step 41415327 / 1000000001 | TPS 19837.7 | ETA 13:25:21
Time 00:33:31 | Step 41613868 / 1000000001 | TPS 19853.9 | ETA 13:24:31
Time 00:33:41 | Step 41812571 / 1000000001 | TPS 19870.3 | ETA 13:23:42
Time 00:33:51 | Step 42011056 / 1000000001 | TPS 19848.4 | ETA 13:24:25
Time 00:34:01 | Step 42209412 / 1000000001 | TPS 19835.6 | ETA 13:24:46
Time 00:34:11 | Step 42407925 / 1000000001 | TPS 19851.2 | ETA 13:23:58
Time 00:34:21 | Step 42606461 / 1000000001 | TPS 19853.6 | ETA 13:23:42
Time 00:34:31 | Step 42804864 / 1000000001 | TPS 19840.3 | ETA 13:24:05
Time 00:34:41 | Step 43003497 / 1000000001 | TPS 19863.2 | ETA 13:22:59
Time 00:34:51 | Step 43202257 / 1000000001 | TPS 19876 | ETA 13:22:18
Time 00:35:01 | Step 43400800 / 1000000001 | TPS 19854.3 | ETA 13:23:01
Time 00:35:11 | Step 43599346 / 1000000001 | TPS 19854.5 | ETA 13:22:50
Time 00:35:21 | Step 43797745 / 1000000001 | TPS 19839.8 | ETA 13:23:16
Time 00:35:31 | Step 43996251 / 1000000001 | TPS 19850.5 | ETA 13:22:40
Time 00:35:41 | Step 44194446 / 1000000001 | TPS 19819.4 | ETA 13:23:45
Time 00:35:51 | Step 44392940 / 1000000001 | TPS 19849.4 | ETA 13:22:22
Time 00:36:01 | Step 44591510 / 1000000001 | TPS 19857 | ETA 13:21:54
Time 00:36:11 | Step 44790089 / 1000000001 | TPS 19857.8 | ETA 13:21:42
Time 00:36:21 | Step 44988781 / 1000000001 | TPS 19869.1 | ETA 13:21:05
Time 00:36:31 | Step 45187308 / 1000000001 | TPS 19852.6 | ETA 13:21:35
Time 00:36:41 | Step 45385756 / 1000000001 | TPS 19844.8 | ETA 13:21:44
Time 00:36:51 | Step 45584314 / 1000000001 | TPS 19855.8 | ETA 13:21:07
Time 00:37:01 | Step 45782545 / 1000000001 | TPS 19823.1 | ETA 13:22:16
Time 00:37:11 | Step 45980783 / 1000000001 | TPS 19823.7 | ETA 13:22:05
Time 00:37:21 | Step 46179121 / 1000000001 | TPS 19833.7 | ETA 13:21:30
Time 00:37:31 | Step 46377768 / 1000000001 | TPS 19864.6 | ETA 13:20:06
Time 00:37:41 | Step 46576048 / 1000000001 | TPS 19828 | ETA 13:21:24
Time 00:37:51 | Step 46774605 / 1000000001 | TPS 19855.7 | ETA 13:20:07
Time 00:38:01 | Step 46973124 / 1000000001 | TPS 19851.9 | ETA 13:20:06
Time 00:38:11 | Step 47171469 / 1000000001 | TPS 19834.4 | ETA 13:20:39
Time 00:38:21 | Step 47370305 / 1000000001 | TPS 19883.5 | ETA 13:18:30
Time 00:38:31 | Step 47568895 / 1000000001 | TPS 19858.8 | ETA 13:19:20
Time 00:38:41 | Step 47767664 / 1000000001 | TPS 19876.9 | ETA 13:18:26
Time 00:38:51 | Step 47966556 / 1000000001 | TPS 19889.1 | ETA 13:17:46
Time 00:39:01 | Step 48165095 / 1000000001 | TPS 19853.9 | ETA 13:19:02
Time 00:39:11 | Step 48363708 / 1000000001 | TPS 19861.3 | ETA 13:18:34
Time 00:39:21 | Step 48562335 / 1000000001 | TPS 19862.7 | ETA 13:18:20
Time 00:39:31 | Step 48760970 / 1000000001 | TPS 19863.4 | ETA 13:18:09
Time 00:39:41 | Step 48959583 / 1000000001 | TPS 19861.1 | ETA 13:18:04
Time 00:39:51 | Step 49157908 / 1000000001 | TPS 19832.4 | ETA 13:19:03
Time 00:40:01 | Step 49356436 / 1000000001 | TPS 19852.8 | ETA 13:18:04
Time 00:40:11 | Step 49554840 / 1000000001 | TPS 19840.3 | ETA 13:18:24
Time 00:40:21 | Step 49753323 / 1000000001 | TPS 19848.2 | ETA 13:17:55
Time 00:40:31 | Step 49951871 / 1000000001 | TPS 19854.8 | ETA 13:17:29
Time 00:40:41 | Step 50150046 / 1000000001 | TPS 19817.5 | ETA 13:18:49
Time 00:40:51 | Step 50348322 / 1000000001 | TPS 19827.5 | ETA 13:18:15
Time 00:41:01 | Step 50546624 / 1000000001 | TPS 19830.2 | ETA 13:17:59
Time 00:41:11 | Step 50745062 / 1000000001 | TPS 19843.7 | ETA 13:17:16
Time 00:41:21 | Step 50943698 / 1000000001 | TPS 19863.6 | ETA 13:16:18
Time 00:41:31 | Step 51140744 / 1000000001 | TPS 19704.6 | ETA 13:22:34
Time 00:41:41 | Step 51339221 / 1000000001 | TPS 19847.6 | ETA 13:16:37
Time 00:41:51 | Step 51537849 / 1000000001 | TPS 19862.7 | ETA 13:15:50
Time 00:42:01 | Step 51736384 / 1000000001 | TPS 19853.4 | ETA 13:16:03
Time 00:42:11 | Step 51934779 / 1000000001 | TPS 19839.4 | ETA 13:16:26
Time 00:42:21 | Step 52131543 / 1000000001 | TPS 19676.3 | ETA 13:22:53
Time 00:42:31 | Step 52329983 / 1000000001 | TPS 19844 | ETA 13:15:56
Time 00:42:41 | Step 52528398 / 1000000001 | TPS 19841.4 | ETA 13:15:52
Time 00:42:51 | Step 52726840 / 1000000001 | TPS 19844.2 | ETA 13:15:35
Time 00:43:01 | Step 52925257 / 1000000001 | TPS 19841.5 | ETA 13:15:31
Time 00:43:11 | Step 53123430 / 1000000001 | TPS 19817.3 | ETA 13:16:20
Time 00:43:21 | Step 53321725 / 1000000001 | TPS 19829.5 | ETA 13:15:40
Time 00:43:31 | Step 53520133 / 1000000001 | TPS 19840.7 | ETA 13:15:03
Time 00:43:41 | Step 53718483 / 1000000001 | TPS 19834.9 | ETA 13:15:07
Time 00:43:51 | Step 53916627 / 1000000001 | TPS 19814.3 | ETA 13:15:47
Time 00:44:01 | Step 54114873 / 1000000001 | TPS 19824.5 | ETA 13:15:12
Time 00:44:11 | Step 54313159 / 1000000001 | TPS 19828.6 | ETA 13:14:53
Time 00:44:21 | Step 54511345 / 1000000001 | TPS 19818.5 | ETA 13:15:07
Time 00:44:31 | Step 54710002 / 1000000001 | TPS 19865.7 | ETA 13:13:04
Time 00:44:41 | Step 54908450 / 1000000001 | TPS 19844.8 | ETA 13:13:44
Time 00:44:51 | Step 55106436 / 1000000001 | TPS 19798.5 | ETA 13:15:25
Time 00:45:01 | Step 55304622 / 1000000001 | TPS 19818.6 | ETA 13:14:27
Time 00:45:11 | Step 55502815 / 1000000001 | TPS 19819.2 | ETA 13:14:15
Time 00:45:21 | Step 55701004 / 1000000001 | TPS 19818.8 | ETA 13:14:06
Time 00:45:31 | Step 55899209 / 1000000001 | TPS 19820.4 | ETA 13:13:52
Time 00:45:41 | Step 56096793 / 1000000001 | TPS 19758.3 | ETA 13:16:12
Time 00:45:51 | Step 56295094 / 1000000001 | TPS 19830 | ETA 13:13:09
Time 00:46:01 | Step 56493479 / 1000000001 | TPS 19838.4 | ETA 13:12:39
Time 00:46:11 | Step 56691901 / 1000000001 | TPS 19842.1 | ETA 13:12:20
Time 00:46:21 | Step 56889998 / 1000000001 | TPS 19809.5 | ETA 13:13:28
Time 00:46:31 | Step 57088385 / 1000000001 | TPS 19838.7 | ETA 13:12:08
Time 00:46:41 | Step 57286531 / 1000000001 | TPS 19814.6 | ETA 13:12:56
Time 00:46:51 | Step 57484737 / 1000000001 | TPS 19820.6 | ETA 13:12:32
Time 00:47:01 | Step 57683049 / 1000000001 | TPS 19831.2 | ETA 13:11:56
Time 00:47:11 | Step 57881323 / 1000000001 | TPS 19827.4 | ETA 13:11:56
Time 00:47:21 | Step 58079632 / 1000000001 | TPS 19830.7 | ETA 13:11:38
Time 00:47:31 | Step 58278112 / 1000000001 | TPS 19847.9 | ETA 13:10:46
Time 00:47:41 | Step 58476676 / 1000000001 | TPS 19856.4 | ETA 13:10:16
Time 00:47:51 | Step 58675010 / 1000000001 | TPS 19833.4 | ETA 13:11:01
Time 00:48:01 | Step 58873313 / 1000000001 | TPS 19830.2 | ETA 13:10:59
Time 00:48:11 | Step 59071638 / 1000000001 | TPS 19832.5 | ETA 13:10:43
Time 00:48:21 | Step 59269830 / 1000000001 | TPS 19819.2 | ETA 13:11:05
Time 00:48:31 | Step 59468378 / 1000000001 | TPS 19854.6 | ETA 13:09:30
Time 00:48:41 | Step 59666971 / 1000000001 | TPS 19859.2 | ETA 13:09:10
Time 00:48:51 | Step 59865326 / 1000000001 | TPS 19835.5 | ETA 13:09:56
Time 00:49:01 | Step 60064084 / 1000000001 | TPS 19875.7 | ETA 13:08:10
Time 00:49:11 | Step 60262474 / 1000000001 | TPS 19839 | ETA 13:09:28
Time 00:49:21 | Step 60460980 / 1000000001 | TPS 19850.5 | ETA 13:08:50
Time 00:49:31 | Step 60659507 / 1000000001 | TPS 19852.7 | ETA 13:08:35
Time 00:49:41 | Step 60858002 / 1000000001 | TPS 19849.4 | ETA 13:08:33
Time 00:49:51 | Step 61056495 / 1000000001 | TPS 19849.3 | ETA 13:08:23
Time 00:50:01 | Step 61254854 / 1000000001 | TPS 19835.9 | ETA 13:08:45
Time 00:50:11 | Step 61453310 / 1000000001 | TPS 19845.6 | ETA 13:08:12
Time 00:50:21 | Step 61651701 / 1000000001 | TPS 19839 | ETA 13:08:18
Time 00:50:31 | Step 61850294 / 1000000001 | TPS 19859.2 | ETA 13:07:19
Time 00:50:41 | Step 62048510 / 1000000001 | TPS 19821.5 | ETA 13:08:39
Time 00:50:51 | Step 62246794 / 1000000001 | TPS 19828.3 | ETA 13:08:13
Time 00:51:01 | Step 62445550 / 1000000001 | TPS 19875.5 | ETA 13:06:11
Time 00:51:11 | Step 62643921 / 1000000001 | TPS 19837.1 | ETA 13:07:32
Time 00:51:21 | Step 62842411 / 1000000001 | TPS 19849 | ETA 13:06:54
Time 00:51:31 | Step 63040842 / 1000000001 | TPS 19843.1 | ETA 13:06:58
Time 00:51:41 | Step 63239324 / 1000000001 | TPS 19848.2 | ETA 13:06:36
Time 00:51:51 | Step 63436842 / 1000000001 | TPS 19751.8 | ETA 13:10:16
Time 00:52:01 | Step 63635006 / 1000000001 | TPS 19816.4 | ETA 13:07:32
Time 00:52:11 | Step 63833361 / 1000000001 | TPS 19835.5 | ETA 13:06:36
Time 00:52:21 | Step 64031842 / 1000000001 | TPS 19848 | ETA 13:05:56
Time 00:52:31 | Step 64230285 / 1000000001 | TPS 19844.2 | ETA 13:05:55
Time 00:52:41 | Step 64428804 / 1000000001 | TPS 19851.9 | ETA 13:05:27
Time 00:52:51 | Step 64627145 / 1000000001 | TPS 19834.1 | ETA 13:05:59
Time 00:53:01 | Step 64825591 / 1000000001 | TPS 19844.4 | ETA 13:05:25
Time 00:53:11 | Step 65024017 / 1000000001 | TPS 19842.6 | ETA 13:05:19
Time 00:53:21 | Step 65222455 / 1000000001 | TPS 19843.8 | ETA 13:05:06
Time 00:53:31 | Step 65421102 / 1000000001 | TPS 19864.6 | ETA 13:04:07
Time 00:53:41 | Step 65619480 / 1000000001 | TPS 19837.8 | ETA 13:05:01
Time 00:53:51 | Step 65818153 / 1000000001 | TPS 19867.2 | ETA 13:03:41
Time 00:54:01 | Step 66016586 / 1000000001 | TPS 19843.3 | ETA 13:04:27
Time 00:54:11 | Step 66214649 / 1000000001 | TPS 19806.3 | ETA 13:05:45
Time 00:54:21 | Step 66413052 / 1000000001 | TPS 19840.3 | ETA 13:04:15
Time 00:54:31 | Step 66611206 / 1000000001 | TPS 19815.4 | ETA 13:05:04
Time 00:54:41 | Step 66809674 / 1000000001 | TPS 19846.7 | ETA 13:03:39
Time 00:54:51 | Step 67007925 / 1000000001 | TPS 19825 | ETA 13:04:21
Time 00:55:01 | Step 67206242 / 1000000001 | TPS 19831.7 | ETA 13:03:55
Time 00:55:11 | Step 67404502 / 1000000001 | TPS 19826 | ETA 13:03:59
Time 00:55:21 | Step 67602638 / 1000000001 | TPS 19813.5 | ETA 13:04:18
Time 00:55:31 | Step 67801017 / 1000000001 | TPS 19837.7 | ETA 13:03:11
Time 00:55:41 | Step 67999112 / 1000000001 | TPS 19809.5 | ETA 13:04:08
Time 00:55:51 | Step 68197064 / 1000000001 | TPS 19795.2 | ETA 13:04:32
Time 00:56:01 | Step 68395144 / 1000000001 | TPS 19807.9 | ETA 13:03:52
Time 00:56:11 | Step 68593417 / 1000000001 | TPS 19827.2 | ETA 13:02:56
Time 00:56:21 | Step 68791603 / 1000000001 | TPS 19818.6 | ETA 13:03:06
Time 00:56:31 | Step 68989924 / 1000000001 | TPS 19832 | ETA 13:02:24
Time 00:56:41 | Step 69188146 / 1000000001 | TPS 19822.1 | ETA 13:02:38
Time 00:56:51 | Step 69386194 / 1000000001 | TPS 19804.8 | ETA 13:03:09
Time 00:57:01 | Step 69584488 / 1000000001 | TPS 19829.4 | ETA 13:02:01
Time 00:57:11 | Step 69782498 / 1000000001 | TPS 19801 | ETA 13:02:58
Time 00:57:21 | Step 69980744 / 1000000001 | TPS 19824.6 | ETA 13:01:52
Time 00:57:31 | Step 70179000 / 1000000001 | TPS 19825.4 | ETA 13:01:40
Time 00:57:41 | Step 70377284 / 1000000001 | TPS 19828.4 | ETA 13:01:23
Time 00:57:51 | Step 70575791 / 1000000001 | TPS 19850.7 | ETA 13:00:20
Time 00:58:01 | Step 70774434 / 1000000001 | TPS 19864.3 | ETA 12:59:38
Time 00:58:11 | Step 70972939 / 1000000001 | TPS 19850.5 | ETA 13:00:01
Time 00:58:21 | Step 71171241 / 1000000001 | TPS 19830.2 | ETA 13:00:39
Time 00:58:31 | Step 71369616 / 1000000001 | TPS 19837.4 | ETA 13:00:12
Time 00:58:41 | Step 71568240 / 1000000001 | TPS 19862.3 | ETA 12:59:03
Time 00:58:51 | Step 71766892 / 1000000001 | TPS 19865.2 | ETA 12:58:46
Time 00:59:01 | Step 71965148 / 1000000001 | TPS 19825.6 | ETA 13:00:10
Time 00:59:11 | Step 72163268 / 1000000001 | TPS 19811.9 | ETA 13:00:32
Time 00:59:21 | Step 72361419 / 1000000001 | TPS 19815.1 | ETA 13:00:14
Time 00:59:31 | Step 72559752 / 1000000001 | TPS 19833.2 | ETA 12:59:21
Time 00:59:41 | Step 72758267 / 1000000001 | TPS 19851.5 | ETA 12:58:28
Time 00:59:51 | Step 72956726 / 1000000001 | TPS 19845.8 | ETA 12:58:32
Time 01:00:01 | Step 73155227 / 1000000001 | TPS 19850 | ETA 12:58:12
Time 01:00:11 | Step 73353598 / 1000000001 | TPS 19837.1 | ETA 12:58:32
Time 01:00:21 | Step 73551901 / 1000000001 | TPS 19829.9 | ETA 12:58:39
Time 01:00:31 | Step 73750413 / 1000000001 | TPS 19851.2 | ETA 12:57:39
Time 01:00:41 | Step 73948869 / 1000000001 | TPS 19845.6 | ETA 12:57:42
Time 01:00:51 | Step 74147218 / 1000000001 | TPS 19834.9 | ETA 12:57:57
Time 01:01:01 | Step 74345677 / 1000000001 | TPS 19845.8 | ETA 12:57:22
Time 01:01:11 | Step 74544243 / 1000000001 | TPS 19856.5 | ETA 12:56:47
Time 01:01:21 | Step 74742804 / 1000000001 | TPS 19856.1 | ETA 12:56:38
Time 01:01:31 | Step 74941175 / 1000000001 | TPS 19837 | ETA 12:57:12
Time 01:01:41 | Step 75138714 / 1000000001 | TPS 19753.8 | ETA 13:00:19
Time 01:01:51 | Step 75337273 / 1000000001 | TPS 19855.7 | ETA 12:56:09
Time 01:02:01 | Step 75535900 / 1000000001 | TPS 19862.6 | ETA 12:55:43
Time 01:02:11 | Step 75734498 / 1000000001 | TPS 19859.8 | ETA 12:55:39
Time 01:02:21 | Step 75932992 / 1000000001 | TPS 19849.3 | ETA 12:55:54
Time 01:02:31 | Step 76131422 / 1000000001 | TPS 19842.9 | ETA 12:55:59
Time 01:02:41 | Step 76330077 / 1000000001 | TPS 19865.4 | ETA 12:54:56
Time 01:02:51 | Step 76528600 / 1000000001 | TPS 19852.3 | ETA 12:55:17
Time 01:03:01 | Step 76726937 / 1000000001 | TPS 19833.3 | ETA 12:55:51
Time 01:03:11 | Step 76925378 / 1000000001 | TPS 19844 | ETA 12:55:16
Time 01:03:21 | Step 77123834 / 1000000001 | TPS 19845.6 | ETA 12:55:02
Time 01:03:31 | Step 77322269 / 1000000001 | TPS 19843.4 | ETA 12:54:57
Time 01:03:41 | Step 77521145 / 1000000001 | TPS 19887.5 | ETA 12:53:04
Time 01:03:51 | Step 77719660 / 1000000001 | TPS 19851.5 | ETA 12:54:19
Time 01:04:01 | Step 77918164 / 1000000001 | TPS 19850.3 | ETA 12:54:11
Time 01:04:11 | Step 78116420 / 1000000001 | TPS 19825.6 | ETA 12:54:59
Time 01:04:21 | Step 78314673 / 1000000001 | TPS 19825.2 | ETA 12:54:50
Time 01:04:31 | Step 78513142 / 1000000001 | TPS 19846.9 | ETA 12:53:49
Time 01:04:41 | Step 78711370 / 1000000001 | TPS 19822.7 | ETA 12:54:36
Time 01:04:51 | Step 78909691 / 1000000001 | TPS 19832 | ETA 12:54:04
Time 01:05:01 | Step 79107923 / 1000000001 | TPS 19823.1 | ETA 12:54:15
Time 01:05:11 | Step 79306227 / 1000000001 | TPS 19830.4 | ETA 12:53:48
Time 01:05:21 | Step 79504577 / 1000000001 | TPS 19834.9 | ETA 12:53:27
Time 01:05:31 | Step 79702939 / 1000000001 | TPS 19836.2 | ETA 12:53:14
Time 01:05:41 | Step 79901387 / 1000000001 | TPS 19844.7 | ETA 12:52:44
Time 01:05:51 | Step 80099784 / 1000000001 | TPS 19839.7 | ETA 12:52:46
Time 01:06:01 | Step 80297954 / 1000000001 | TPS 19816.9 | ETA 12:53:29
Time 01:06:11 | Step 80496382 / 1000000001 | TPS 19842.7 | ETA 12:52:19
Time 01:06:21 | Step 80694777 / 1000000001 | TPS 19839.3 | ETA 12:52:17
Time 01:06:31 | Step 80893191 / 1000000001 | TPS 19841.3 | ETA 12:52:02
Time 01:06:41 | Step 81091389 / 1000000001 | TPS 19819.7 | ETA 12:52:43
Time 01:06:51 | Step 81289555 / 1000000001 | TPS 19816.4 | ETA 12:52:41
Time 01:07:01 | Step 81487788 / 1000000001 | TPS 19823.2 | ETA 12:52:15
Time 01:07:11 | Step 81686343 / 1000000001 | TPS 19855.4 | ETA 12:50:50
Time 01:07:21 | Step 81884749 / 1000000001 | TPS 19840.4 | ETA 12:51:14
Time 01:07:31 | Step 82083132 / 1000000001 | TPS 19838.1 | ETA 12:51:10
Time 01:07:41 | Step 82281511 / 1000000001 | TPS 19837.7 | ETA 12:51:01
Time 01:07:51 | Step 82479996 / 1000000001 | TPS 19848.5 | ETA 12:50:26
Time 01:08:01 | Step 82678544 / 1000000001 | TPS 19854.7 | ETA 12:50:01
Time 01:08:11 | Step 82877200 / 1000000001 | TPS 19865.6 | ETA 12:49:26
Time 01:08:21 | Step 83075421 / 1000000001 | TPS 19822.1 | ETA 12:50:57
Time 01:08:31 | Step 83273933 / 1000000001 | TPS 19851.2 | ETA 12:49:39
Time 01:08:41 | Step 83472310 / 1000000001 | TPS 19837.5 | ETA 12:50:01
Time 01:08:51 | Step 83670808 / 1000000001 | TPS 19849.8 | ETA 12:49:23
Time 01:09:01 | Step 83869351 / 1000000001 | TPS 19854.3 | ETA 12:49:02
Time 01:09:11 | Step 84067673 / 1000000001 | TPS 19832.1 | ETA 12:49:44
Time 01:09:21 | Step 84266198 / 1000000001 | TPS 19852.5 | ETA 12:48:46
Time 01:09:31 | Step 84464715 / 1000000001 | TPS 19851.6 | ETA 12:48:38
Time 01:09:41 | Step 84662962 / 1000000001 | TPS 19824.7 | ETA 12:49:31
Time 01:09:51 | Step 84860861 / 1000000001 | TPS 19789.8 | ETA 12:50:43
Time 01:10:01 | Step 85058941 / 1000000001 | TPS 19807.9 | ETA 12:49:50
Time 01:10:11 | Step 85257488 / 1000000001 | TPS 19854.7 | ETA 12:47:51
Time 01:10:21 | Step 85455964 / 1000000001 | TPS 19847.5 | ETA 12:47:58
Time 01:10:31 | Step 85654259 / 1000000001 | TPS 19829.5 | ETA 12:48:30
Time 01:10:41 | Step 85853135 / 1000000001 | TPS 19887.6 | ETA 12:46:05
Time 01:10:51 | Step 86051335 / 1000000001 | TPS 19820 | ETA 12:48:32
Time 01:11:01 | Step 86249608 / 1000000001 | TPS 19827.3 | ETA 12:48:05
Time 01:11:11 | Step 86447683 / 1000000001 | TPS 19807.5 | ETA 12:48:41
Time 01:11:21 | Step 86646121 / 1000000001 | TPS 19843.8 | ETA 12:47:07
Time 01:11:31 | Step 86844599 / 1000000001 | TPS 19847.8 | ETA 12:46:47
Time 01:11:41 | Step 87042829 / 1000000001 | TPS 19823 | ETA 12:47:35
Time 01:11:51 | Step 87241239 / 1000000001 | TPS 19840.9 | ETA 12:46:43
Time 01:12:01 | Step 87439528 / 1000000001 | TPS 19828.8 | ETA 12:47:02
Time 01:12:11 | Step 87637889 / 1000000001 | TPS 19835.9 | ETA 12:46:35
Time 01:12:21 | Step 87836115 / 1000000001 | TPS 19822.6 | ETA 12:46:56
Time 01:12:31 | Step 88034302 / 1000000001 | TPS 19818.7 | ETA 12:46:55
Time 01:12:41 | Step 88232587 / 1000000001 | TPS 19828.4 | ETA 12:46:23
Time 01:12:51 | Step 88430870 / 1000000001 | TPS 19828.2 | ETA 12:46:13
Time 01:13:01 | Step 88629438 / 1000000001 | TPS 19856.6 | ETA 12:44:57
Time 01:13:11 | Step 88827783 / 1000000001 | TPS 19834.5 | ETA 12:45:38
Time 01:13:21 | Step 89025900 / 1000000001 | TPS 19811.5 | ETA 12:46:22
Time 01:13:31 | Step 89224219 / 1000000001 | TPS 19831.8 | ETA 12:45:24
Time 01:13:41 | Step 89422495 / 1000000001 | TPS 19827.5 | ETA 12:45:24
Time 01:13:51 | Step 89621064 / 1000000001 | TPS 19856.9 | ETA 12:44:07
Time 01:14:01 | Step 89819489 / 1000000001 | TPS 19842.5 | ETA 12:44:30
Time 01:14:11 | Step 90017780 / 1000000001 | TPS 19829.1 | ETA 12:44:51
Time 01:14:21 | Step 90216102 / 1000000001 | TPS 19832.2 | ETA 12:44:34
Time 01:14:31 | Step 90414266 / 1000000001 | TPS 19816.4 | ETA 12:45:00
Time 01:14:41 | Step 90613042 / 1000000001 | TPS 19877.5 | ETA 12:42:29
Time 01:14:51 | Step 90811457 / 1000000001 | TPS 19841.4 | ETA 12:43:42
Time 01:15:01 | Step 91009860 / 1000000001 | TPS 19840.3 | ETA 12:43:35
Time 01:15:11 | Step 91208386 / 1000000001 | TPS 19852.6 | ETA 12:42:56
Time 01:15:21 | Step 91406653 / 1000000001 | TPS 19826.7 | ETA 12:43:46
Time 01:15:31 | Step 91605081 / 1000000001 | TPS 19842.6 | ETA 12:42:59
Time 01:15:41 | Step 91803620 / 1000000001 | TPS 19853.9 | ETA 12:42:24
Time 01:15:51 | Step 92001667 / 1000000001 | TPS 19804.7 | ETA 12:44:07
Time 01:16:01 | Step 92199913 / 1000000001 | TPS 19824.5 | ETA 12:43:11
Time 01:16:11 | Step 92398020 / 1000000001 | TPS 19810.7 | ETA 12:43:33
Time 01:16:21 | Step 92596289 / 1000000001 | TPS 19826.7 | ETA 12:42:46
Time 01:16:31 | Step 92794499 / 1000000001 | TPS 19821 | ETA 12:42:50
Time 01:16:41 | Step 92992490 / 1000000001 | TPS 19799.1 | ETA 12:43:30
Time 01:16:51 | Step 93190441 / 1000000001 | TPS 19794.9 | ETA 12:43:30
Time 01:17:01 | Step 93388649 / 1000000001 | TPS 19820.8 | ETA 12:42:20
Time 01:17:11 | Step 93587282 / 1000000001 | TPS 19863.2 | ETA 12:40:32
Time 01:17:21 | Step 93785652 / 1000000001 | TPS 19836.9 | ETA 12:41:23
Time 01:17:31 | Step 93983952 / 1000000001 | TPS 19829.9 | ETA 12:41:29
Time 01:17:41 | Step 94180725 / 1000000001 | TPS 19677.2 | ETA 12:47:13
Time 01:17:51 | Step 94378834 / 1000000001 | TPS 19810.9 | ETA 12:41:53
Time 01:18:01 | Step 94577361 / 1000000001 | TPS 19852.6 | ETA 12:40:07
Time 01:18:11 | Step 94775803 / 1000000001 | TPS 19844.1 | ETA 12:40:16
Time 01:18:21 | Step 94974215 / 1000000001 | TPS 19841.2 | ETA 12:40:13
Time 01:18:31 | Step 95170947 / 1000000001 | TPS 19673.1 | ETA 12:46:33
Time 01:18:41 | Step 95369106 / 1000000001 | TPS 19815.8 | ETA 12:40:51
Time 01:18:51 | Step 95567344 / 1000000001 | TPS 19823.8 | ETA 12:40:23
Time 01:19:01 | Step 95765416 / 1000000001 | TPS 19807.2 | ETA 12:40:51
Time 01:19:11 | Step 95963848 / 1000000001 | TPS 19843 | ETA 12:39:19
Time 01:19:21 | Step 96162142 / 1000000001 | TPS 19829.4 | ETA 12:39:40
Time 01:19:31 | Step 96360479 / 1000000001 | TPS 19833.6 | ETA 12:39:20
Time 01:19:41 | Step 96558949 / 1000000001 | TPS 19846.9 | ETA 12:38:40
Time 01:19:51 | Step 96757481 / 1000000001 | TPS 19853.2 | ETA 12:38:16
Time 01:20:01 | Step 96956122 / 1000000001 | TPS 19864.1 | ETA 12:37:41
Time 01:20:11 | Step 97154338 / 1000000001 | TPS 19821.5 | ETA 12:39:08
Time 01:20:21 | Step 97352653 / 1000000001 | TPS 19831.4 | ETA 12:38:36
Time 01:20:31 | Step 97551118 / 1000000001 | TPS 19846.5 | ETA 12:37:51
Time 01:20:41 | Step 97749618 / 1000000001 | TPS 19850 | ETA 12:37:33
Time 01:20:51 | Step 97947882 / 1000000001 | TPS 19826.3 | ETA 12:38:17
Time 01:21:01 | Step 98145974 / 1000000001 | TPS 19809.2 | ETA 12:38:47
Time 01:21:11 | Step 98344488 / 1000000001 | TPS 19851.4 | ETA 12:37:00
Time 01:21:21 | Step 98543019 / 1000000001 | TPS 19853 | ETA 12:36:46
Time 01:21:31 | Step 98741504 / 1000000001 | TPS 19848.4 | ETA 12:36:46
Time 01:21:41 | Step 98940121 / 1000000001 | TPS 19861.6 | ETA 12:36:06
Time 01:21:51 | Step 99138275 / 1000000001 | TPS 19815.4 | ETA 12:37:42
Time 01:22:01 | Step 99336754 / 1000000001 | TPS 19847.9 | ETA 12:36:18
Time 01:22:11 | Step 99535503 / 1000000001 | TPS 19874.8 | ETA 12:35:06
Time 01:22:21 | Step 99733946 / 1000000001 | TPS 19844.2 | ETA 12:36:06
Time 01:22:31 | Step 99932592 / 1000000001 | TPS 19864.4 | ETA 12:35:10
Time 01:22:41 | Step 100131063 / 1000000001 | TPS 19847 | ETA 12:35:40
Time 01:22:51 | Step 100329799 / 1000000001 | TPS 19873.6 | ETA 12:34:29
Time 01:23:01 | Step 100528458 / 1000000001 | TPS 19865.8 | ETA 12:34:37
Time 01:23:11 | Step 100726814 / 1000000001 | TPS 19835.5 | ETA 12:35:36
Time 01:23:21 | Step 100925441 / 1000000001 | TPS 19862.7 | ETA 12:34:24
Time 01:23:31 | Step 101123664 / 1000000001 | TPS 19822.2 | ETA 12:35:46
Time 01:23:41 | Step 101322103 / 1000000001 | TPS 19843.9 | ETA 12:34:47
Time 01:23:51 | Step 101520248 / 1000000001 | TPS 19814.5 | ETA 12:35:44
Time 01:24:01 | Step 101718681 / 1000000001 | TPS 19843.2 | ETA 12:34:29
Time 01:24:11 | Step 101917308 / 1000000001 | TPS 19862.7 | ETA 12:33:34
Time 01:24:21 | Step 102115642 / 1000000001 | TPS 19833.4 | ETA 12:34:31
Time 01:24:31 | Step 102314232 / 1000000001 | TPS 19859 | ETA 12:33:22
Time 01:24:41 | Step 102512912 / 1000000001 | TPS 19867.9 | ETA 12:32:52
Time 01:24:51 | Step 102711298 / 1000000001 | TPS 19838.6 | ETA 12:33:49
Time 01:25:01 | Step 102909970 / 1000000001 | TPS 19867.2 | ETA 12:32:34
Time 01:25:11 | Step 103107462 / 1000000001 | TPS 19749.1 | ETA 12:36:54
Time 01:25:21 | Step 103306083 / 1000000001 | TPS 19862 | ETA 12:32:26
Time 01:25:31 | Step 103504319 / 1000000001 | TPS 19823.6 | ETA 12:33:43
Time 01:25:41 | Step 103702828 / 1000000001 | TPS 19850.8 | ETA 12:32:31
Time 01:25:51 | Step 103901134 / 1000000001 | TPS 19830.6 | ETA 12:33:07
Time 01:26:01 | Step 104099591 / 1000000001 | TPS 19845.6 | ETA 12:32:23
Time 01:26:11 | Step 104298291 / 1000000001 | TPS 19870 | ETA 12:31:18
Time 01:26:21 | Step 104496895 / 1000000001 | TPS 19860.4 | ETA 12:31:29
Time 01:26:31 | Step 104695348 / 1000000001 | TPS 19845.3 | ETA 12:31:54
Time 01:26:41 | Step 104894158 / 1000000001 | TPS 19880.9 | ETA 12:30:23
Time 01:26:51 | Step 105092850 / 1000000001 | TPS 19869.2 | ETA 12:30:39
Time 01:27:01 | Step 105291336 / 1000000001 | TPS 19848.6 | ETA 12:31:16
Time 01:27:11 | Step 105489765 / 1000000001 | TPS 19842.8 | ETA 12:31:19
Time 01:27:21 | Step 105688201 / 1000000001 | TPS 19843.5 | ETA 12:31:08
Time 01:27:31 | Step 105886498 / 1000000001 | TPS 19829.7 | ETA 12:31:29
Time 01:27:41 | Step 106084865 / 1000000001 | TPS 19836.6 | ETA 12:31:03
Time 01:27:51 | Step 106283137 / 1000000001 | TPS 19827.2 | ETA 12:31:15
Time 01:28:01 | Step 106481291 / 1000000001 | TPS 19815.4 | ETA 12:31:32
Time 01:28:11 | Step 106679576 / 1000000001 | TPS 19828.4 | ETA 12:30:52
Time 01:28:21 | Step 106877647 / 1000000001 | TPS 19807.1 | ETA 12:31:31
Time 01:28:31 | Step 107075646 / 1000000001 | TPS 19799.9 | ETA 12:31:37
Time 01:28:41 | Step 107273863 / 1000000001 | TPS 19821.7 | ETA 12:30:37
Time 01:28:51 | Step 107471872 / 1000000001 | TPS 19800.8 | ETA 12:31:15
Time 01:29:01 | Step 107670025 / 1000000001 | TPS 19815.3 | ETA 12:30:32
Time 01:29:11 | Step 107868130 / 1000000001 | TPS 19810.5 | ETA 12:30:33
Time 01:29:21 | Step 108066646 / 1000000001 | TPS 19851.5 | ETA 12:28:50
Time 01:29:31 | Step 108265141 / 1000000001 | TPS 19849.4 | ETA 12:28:45
Time 01:29:41 | Step 108463616 / 1000000001 | TPS 19847.3 | ETA 12:28:39
Time 01:29:51 | Step 108662082 / 1000000001 | TPS 19846.5 | ETA 12:28:31
Time 01:30:01 | Step 108860394 / 1000000001 | TPS 19831.2 | ETA 12:28:56
Time 01:30:11 | Step 109058799 / 1000000001 | TPS 19840.4 | ETA 12:28:25
Time 01:30:21 | Step 109257257 / 1000000001 | TPS 19845.7 | ETA 12:28:03
Time 01:30:31 | Step 109455487 / 1000000001 | TPS 19822.9 | ETA 12:28:44
Time 01:30:41 | Step 109653758 / 1000000001 | TPS 19827 | ETA 12:28:25
Time 01:30:51 | Step 109852021 / 1000000001 | TPS 19826.3 | ETA 12:28:17
Time 01:31:01 | Step 110050200 / 1000000001 | TPS 19817.9 | ETA 12:28:26
Time 01:31:11 | Step 110248558 / 1000000001 | TPS 19835.7 | ETA 12:27:36
Time 01:31:21 | Step 110446732 / 1000000001 | TPS 19817.4 | ETA 12:28:07
Time 01:31:31 | Step 110644997 / 1000000001 | TPS 19826.5 | ETA 12:27:36
Time 01:31:41 | Step 110842386 / 1000000001 | TPS 19738.9 | ETA 12:30:46
Time 01:31:51 | Step 111040679 / 1000000001 | TPS 19829.2 | ETA 12:27:10
Time 01:32:01 | Step 111238799 / 1000000001 | TPS 19812 | ETA 12:27:39
Time 01:32:11 | Step 111437511 / 1000000001 | TPS 19871.1 | ETA 12:25:16
Time 01:32:21 | Step 111636275 / 1000000001 | TPS 19876.4 | ETA 12:24:54
Time 01:32:31 | Step 111834703 / 1000000001 | TPS 19842.8 | ETA 12:26:00
Time 01:32:41 | Step 112031049 / 1000000001 | TPS 19634.6 | ETA 12:33:44
Time 01:32:51 | Step 112229156 / 1000000001 | TPS 19810.7 | ETA 12:26:52
Time 01:33:01 | Step 112427412 / 1000000001 | TPS 19825.5 | ETA 12:26:09
Time 01:33:11 | Step 112625764 / 1000000001 | TPS 19835.2 | ETA 12:25:37
Time 01:33:21 | Step 112824021 / 1000000001 | TPS 19825.6 | ETA 12:25:48
Time 01:33:31 | Step 113021869 / 1000000001 | TPS 19784.7 | ETA 12:27:11
Time 01:33:41 | Step 113220254 / 1000000001 | TPS 19838.5 | ETA 12:25:00
Time 01:33:51 | Step 113418784 / 1000000001 | TPS 19853 | ETA 12:24:17
Time 01:34:01 | Step 113617445 / 1000000001 | TPS 19865.9 | ETA 12:23:38
Time 01:34:11 | Step 113815895 / 1000000001 | TPS 19844.9 | ETA 12:24:15
Time 01:34:21 | Step 114014431 / 1000000001 | TPS 19853.5 | ETA 12:23:46
Time 01:34:31 | Step 114212758 / 1000000001 | TPS 19832.7 | ETA 12:24:23
Time 01:34:41 | Step 114411284 / 1000000001 | TPS 19852.5 | ETA 12:23:28
Time 01:34:51 | Step 114609531 / 1000000001 | TPS 19824.7 | ETA 12:24:20
Time 01:35:01 | Step 114808243 / 1000000001 | TPS 19871.1 | ETA 12:22:26
Time 01:35:11 | Step 115007016 / 1000000001 | TPS 19877.3 | ETA 12:22:02
Time 01:35:21 | Step 115205320 / 1000000001 | TPS 19830.3 | ETA 12:23:38
Time 01:35:31 | Step 115403877 / 1000000001 | TPS 19855.5 | ETA 12:22:31
Time 01:35:41 | Step 115602294 / 1000000001 | TPS 19841.6 | ETA 12:22:52
Time 01:35:51 | Step 115800756 / 1000000001 | TPS 19846.2 | ETA 12:22:32
Time 01:36:01 | Step 115999391 / 1000000001 | TPS 19863.4 | ETA 12:21:44
Time 01:36:11 | Step 116197657 / 1000000001 | TPS 19826.6 | ETA 12:22:56
Time 01:36:21 | Step 116395865 / 1000000001 | TPS 19820.8 | ETA 12:22:59
Time 01:36:31 | Step 116593920 / 1000000001 | TPS 19805.5 | ETA 12:23:24
Time 01:36:41 | Step 116792415 / 1000000001 | TPS 19849.5 | ETA 12:21:35
Time 01:36:51 | Step 116990710 / 1000000001 | TPS 19829.3 | ETA 12:22:10
Time 01:37:01 | Step 117188817 / 1000000001 | TPS 19810.7 | ETA 12:22:42
Time 01:37:11 | Step 117387059 / 1000000001 | TPS 19824 | ETA 12:22:02
Time 01:37:21 | Step 117585288 / 1000000001 | TPS 19822.8 | ETA 12:21:55
Time 01:37:31 | Step 117783332 / 1000000001 | TPS 19804.4 | ETA 12:22:26
Time 01:37:41 | Step 117981560 / 1000000001 | TPS 19822.8 | ETA 12:21:35
Time 01:37:51 | Step 118179370 / 1000000001 | TPS 19781 | ETA 12:22:59
Time 01:38:01 | Step 118377482 / 1000000001 | TPS 19811.2 | ETA 12:21:41
Time 01:38:11 | Step 118575467 / 1000000001 | TPS 19798.4 | ETA 12:21:59
Time 01:38:21 | Step 118773658 / 1000000001 | TPS 19819.1 | ETA 12:21:03
Time 01:38:31 | Step 118971903 / 1000000001 | TPS 19824.4 | ETA 12:20:41
Time 01:38:41 | Step 119170053 / 1000000001 | TPS 19815 | ETA 12:20:52
Time 01:38:51 | Step 119368648 / 1000000001 | TPS 19859.4 | ETA 12:19:03
Time 01:39:01 | Step 119566919 / 1000000001 | TPS 19827 | ETA 12:20:05
Time 01:39:11 | Step 119765292 / 1000000001 | TPS 19837.3 | ETA 12:19:32
Time 01:39:21 | Step 119963457 / 1000000001 | TPS 19816.4 | ETA 12:20:09
Time 01:39:31 | Step 120161649 / 1000000001 | TPS 19819.2 | ETA 12:19:53
Time 01:39:41 | Step 120360078 / 1000000001 | TPS 19842.9 | ETA 12:18:50
Time 01:39:51 | Step 120558210 / 1000000001 | TPS 19813.2 | ETA 12:19:46
Time 01:40:01 | Step 120756553 / 1000000001 | TPS 19834.3 | ETA 12:18:49
Time 01:40:11 | Step 120955059 / 1000000001 | TPS 19850.6 | ETA 12:18:03
Time 01:40:21 | Step 121153553 / 1000000001 | TPS 19849.4 | ETA 12:17:55
Time 01:40:31 | Step 121351756 / 1000000001 | TPS 19820.3 | ETA 12:18:50
Time 01:40:41 | Step 121549834 / 1000000001 | TPS 19807.8 | ETA 12:19:08
Time 01:40:51 | Step 121748215 / 1000000001 | TPS 19838.1 | ETA 12:17:51
Time 01:41:01 | Step 121946562 / 1000000001 | TPS 19834.7 | ETA 12:17:48
Time 01:41:11 | Step 122144932 / 1000000001 | TPS 19836.9 | ETA 12:17:33
Time 01:41:21 | Step 122343545 / 1000000001 | TPS 19861.2 | ETA 12:16:29
Time 01:41:31 | Step 122541924 / 1000000001 | TPS 19837.9 | ETA 12:17:11
Time 01:41:41 | Step 122740544 / 1000000001 | TPS 19862 | ETA 12:16:07
Time 01:41:51 | Step 122938948 / 1000000001 | TPS 19840.4 | ETA 12:16:45
Time 01:42:01 | Step 123137124 / 1000000001 | TPS 19817.5 | ETA 12:17:26
Time 01:42:11 | Step 123335527 / 1000000001 | TPS 19840.3 | ETA 12:16:26
Time 01:42:21 | Step 123533768 / 1000000001 | TPS 19824.1 | ETA 12:16:52
Time 01:42:31 | Step 123732249 / 1000000001 | TPS 19848 | ETA 12:15:48
Time 01:42:41 | Step 123930718 / 1000000001 | TPS 19846.9 | ETA 12:15:41
Time 01:42:51 | Step 124129189 / 1000000001 | TPS 19847 | ETA 12:15:31
Time 01:43:01 | Step 124327756 / 1000000001 | TPS 19856.7 | ETA 12:14:59
Time 01:43:11 | Step 124526056 / 1000000001 | TPS 19829.8 | ETA 12:15:49
Time 01:43:21 | Step 124724623 / 1000000001 | TPS 19856.7 | ETA 12:14:39
Time 01:43:31 | Step 124922843 / 1000000001 | TPS 19821.9 | ETA 12:15:46
Time 01:43:41 | Step 125121115 / 1000000001 | TPS 19827.2 | ETA 12:15:25
Time 01:43:51 | Step 125319509 / 1000000001 | TPS 19839.2 | ETA 12:14:48
Time 01:44:01 | Step 125517919 / 1000000001 | TPS 19840.9 | ETA 12:14:34
Time 01:44:11 | Step 125716355 / 1000000001 | TPS 19843.5 | ETA 12:14:18
Time 01:44:21 | Step 125914764 / 1000000001 | TPS 19840.8 | ETA 12:14:14
Time 01:44:31 | Step 126112095 / 1000000001 | TPS 19733 | ETA 12:18:05
Time 01:44:41 | Step 126310396 / 1000000001 | TPS 19829.9 | ETA 12:14:19
Time 01:44:51 | Step 126508709 / 1000000001 | TPS 19831.1 | ETA 12:14:06
Time 01:45:01 | Step 126707155 / 1000000001 | TPS 19844.6 | ETA 12:13:26
Time 01:45:11 | Step 126905275 / 1000000001 | TPS 19812 | ETA 12:14:28
Time 01:45:21 | Step 127103699 / 1000000001 | TPS 19842.4 | ETA 12:13:11
Time 01:45:31 | Step 127301940 / 1000000001 | TPS 19824.1 | ETA 12:13:42
Time 01:45:41 | Step 127500196 / 1000000001 | TPS 19825.4 | ETA 12:13:29
Time 01:45:51 | Step 127698488 / 1000000001 | TPS 19829.1 | ETA 12:13:10
Time 01:46:01 | Step 127896747 / 1000000001 | TPS 19825.8 | ETA 12:13:08
Time 01:46:11 | Step 128095342 / 1000000001 | TPS 19859.5 | ETA 12:11:43
Time 01:46:21 | Step 128294119 / 1000000001 | TPS 19877.5 | ETA 12:10:53
Time 01:46:31 | Step 128492662 / 1000000001 | TPS 19854.2 | ETA 12:11:35
Time 01:46:41 | Step 128691160 / 1000000001 | TPS 19849.8 | ETA 12:11:35
Time 01:46:51 | Step 128889510 / 1000000001 | TPS 19835 | ETA 12:11:57
Time 01:47:01 | Step 129087678 / 1000000001 | TPS 19816.8 | ETA 12:12:28
Time 01:47:11 | Step 129286101 / 1000000001 | TPS 19842.2 | ETA 12:11:21
Time 01:47:21 | Step 129484284 / 1000000001 | TPS 19818.3 | ETA 12:12:04
Time 01:47:31 | Step 129682307 / 1000000001 | TPS 19802.3 | ETA 12:12:30
Time 01:47:41 | Step 129880206 / 1000000001 | TPS 19789.9 | ETA 12:12:47
Time 01:47:51 | Step 130078177 / 1000000001 | TPS 19796.9 | ETA 12:12:22
Time 01:48:01 | Step 130276034 / 1000000001 | TPS 19785.7 | ETA 12:12:37
Time 01:48:11 | Step 130474202 / 1000000001 | TPS 19816.8 | ETA 12:11:18
Time 01:48:21 | Step 130672501 / 1000000001 | TPS 19829.9 | ETA 12:10:39
Time 01:48:31 | Step 130870751 / 1000000001 | TPS 19824.9 | ETA 12:10:40
Time 01:48:41 | Step 131068730 / 1000000001 | TPS 19797.8 | ETA 12:11:30
Time 01:48:51 | Step 131266709 / 1000000001 | TPS 19797.7 | ETA 12:11:20
Time 01:49:01 | Step 131464711 / 1000000001 | TPS 19800.2 | ETA 12:11:04
Time 01:49:11 | Step 131662744 / 1000000001 | TPS 19803.3 | ETA 12:10:48
Time 01:49:21 | Step 131860947 / 1000000001 | TPS 19820.2 | ETA 12:10:00
Time 01:49:31 | Step 132059080 / 1000000001 | TPS 19813.2 | ETA 12:10:06
Time 01:49:41 | Step 132257250 / 1000000001 | TPS 19817 | ETA 12:09:47
Time 01:49:51 | Step 132455613 / 1000000001 | TPS 19836.3 | ETA 12:08:55
Time 01:50:01 | Step 132653802 / 1000000001 | TPS 19818.8 | ETA 12:09:23
Time 01:50:11 | Step 132852153 / 1000000001 | TPS 19835.1 | ETA 12:08:37
Time 01:50:21 | Step 133050270 / 1000000001 | TPS 19811.6 | ETA 12:09:19
Time 01:50:31 | Step 133248564 / 1000000001 | TPS 19829.3 | ETA 12:08:30
Time 01:50:41 | Step 133447080 / 1000000001 | TPS 19851.6 | ETA 12:07:31
Time 01:50:51 | Step 133645291 / 1000000001 | TPS 19821.1 | ETA 12:08:28
Time 01:51:01 | Step 133843708 / 1000000001 | TPS 19841.7 | ETA 12:07:33
Time 01:51:11 | Step 134042169 / 1000000001 | TPS 19846.1 | ETA 12:07:13
Time 01:51:21 | Step 134240409 / 1000000001 | TPS 19823.9 | ETA 12:07:52
Time 01:51:31 | Step 134438899 / 1000000001 | TPS 19849 | ETA 12:06:47
Time 01:51:41 | Step 134637276 / 1000000001 | TPS 19837.6 | ETA 12:07:02
Time 01:51:51 | Step 134835958 / 1000000001 | TPS 19868.1 | ETA 12:05:45
Time 01:52:01 | Step 135034241 / 1000000001 | TPS 19828.2 | ETA 12:07:02
Time 01:52:11 | Step 135232601 / 1000000001 | TPS 19836 | ETA 12:06:35
Time 01:52:21 | Step 135431118 / 1000000001 | TPS 19851.7 | ETA 12:05:51
Time 01:52:31 | Step 135629317 / 1000000001 | TPS 19819.9 | ETA 12:06:51
Time 01:52:41 | Step 135827795 / 1000000001 | TPS 19847.7 | ETA 12:05:40
Time 01:52:51 | Step 136026121 / 1000000001 | TPS 19832.5 | ETA 12:06:03
Time 01:53:01 | Step 136224380 / 1000000001 | TPS 19825.9 | ETA 12:06:08
Time 01:53:11 | Step 136423004 / 1000000001 | TPS 19862.4 | ETA 12:04:38
Time 01:53:21 | Step 136621493 / 1000000001 | TPS 19848.9 | ETA 12:04:57
Time 01:53:31 | Step 136820077 / 1000000001 | TPS 19858.4 | ETA 12:04:26
Time 01:53:41 | Step 137018269 / 1000000001 | TPS 19819.2 | ETA 12:05:42
Time 01:53:51 | Step 137216607 / 1000000001 | TPS 19833.8 | ETA 12:05:00
Time 01:54:01 | Step 137415043 / 1000000001 | TPS 19843.6 | ETA 12:04:29
Time 01:54:11 | Step 137613296 / 1000000001 | TPS 19825.3 | ETA 12:04:59
Time 01:54:21 | Step 137811880 / 1000000001 | TPS 19858.3 | ETA 12:03:36
Time 01:54:31 | Step 138010264 / 1000000001 | TPS 19838.4 | ETA 12:04:10
Time 01:54:41 | Step 138208852 / 1000000001 | TPS 19858.7 | ETA 12:03:16
Time 01:54:51 | Step 138407415 / 1000000001 | TPS 19856.3 | ETA 12:03:11
Time 01:55:01 | Step 138605588 / 1000000001 | TPS 19817.3 | ETA 12:04:26
Time 01:55:11 | Step 138803900 / 1000000001 | TPS 19831.1 | ETA 12:03:46
Time 01:55:21 | Step 139002240 / 1000000001 | TPS 19833.9 | ETA 12:03:30
Time 01:55:31 | Step 139200592 / 1000000001 | TPS 19835.2 | ETA 12:03:17
Time 01:55:41 | Step 139398920 / 1000000001 | TPS 19832.7 | ETA 12:03:12
Time 01:55:51 | Step 139597175 / 1000000001 | TPS 19825.5 | ETA 12:03:18
Time 01:56:01 | Step 139795491 / 1000000001 | TPS 19831.4 | ETA 12:02:55
Time 01:56:11 | Step 139993921 / 1000000001 | TPS 19843 | ETA 12:02:20
Time 01:56:21 | Step 140192417 / 1000000001 | TPS 19849.6 | ETA 12:01:56
Time 01:56:31 | Step 140390609 / 1000000001 | TPS 19819.1 | ETA 12:02:52
Time 01:56:41 | Step 140588925 / 1000000001 | TPS 19831.6 | ETA 12:02:15
Time 01:56:51 | Step 140787282 / 1000000001 | TPS 19835.6 | ETA 12:01:56
Time 01:57:01 | Step 140985609 / 1000000001 | TPS 19832.6 | ETA 12:01:53
Time 01:57:11 | Step 141183922 / 1000000001 | TPS 19831.3 | ETA 12:01:46
Time 01:57:21 | Step 141382395 / 1000000001 | TPS 19847.2 | ETA 12:01:01
Time 01:57:31 | Step 141580903 / 1000000001 | TPS 19850.8 | ETA 12:00:43
Time 01:57:41 | Step 141779360 / 1000000001 | TPS 19845.5 | ETA 12:00:45
Time 01:57:51 | Step 141977572 / 1000000001 | TPS 19821.2 | ETA 12:01:28
Time 01:58:01 | Step 142175963 / 1000000001 | TPS 19839.1 | ETA 12:00:39
Time 01:58:11 | Step 142374366 / 1000000001 | TPS 19840.2 | ETA 12:00:26
Time 01:58:21 | Step 142572765 / 1000000001 | TPS 19839.8 | ETA 12:00:17
Time 01:58:31 | Step 142771160 / 1000000001 | TPS 19839.5 | ETA 12:00:08
Time 01:58:41 | Step 142969466 / 1000000001 | TPS 19830.6 | ETA 12:00:17
Time 01:58:51 | Step 143165016 / 1000000001 | TPS 19555 | ETA 12:10:16
Time 01:59:01 | Step 143363529 / 1000000001 | TPS 19851.2 | ETA 11:59:12
Time 01:59:11 | Step 143561993 / 1000000001 | TPS 19846.4 | ETA 11:59:13
Time 01:59:21 | Step 143760499 / 1000000001 | TPS 19850.5 | ETA 11:58:54
Time 01:59:31 | Step 143958904 / 1000000001 | TPS 19840.5 | ETA 11:59:06
Time 01:59:41 | Step 144156832 / 1000000001 | TPS 19792.8 | ETA 12:00:40
Time 01:59:51 | Step 144355286 / 1000000001 | TPS 19845.3 | ETA 11:58:35
Time 02:00:01 | Step 144553855 / 1000000001 | TPS 19856.9 | ETA 11:58:00
Time 02:00:11 | Step 144752481 / 1000000001 | TPS 19862.5 | ETA 11:57:38
Time 02:00:21 | Step 144950661 / 1000000001 | TPS 19818 | ETA 11:59:05
Time 02:00:31 | Step 145148942 / 1000000001 | TPS 19828.1 | ETA 11:58:33
Time 02:00:41 | Step 145347115 / 1000000001 | TPS 19817.2 | ETA 11:58:46
Time 02:00:51 | Step 145545439 / 1000000001 | TPS 19832.3 | ETA 11:58:03
Time 02:01:01 | Step 145743523 / 1000000001 | TPS 19808.4 | ETA 11:58:46
Time 02:01:11 | Step 145941770 / 1000000001 | TPS 19824.7 | ETA 11:58:00
Time 02:01:21 | Step 146140053 / 1000000001 | TPS 19828.3 | ETA 11:57:42
Time 02:01:31 | Step 146338467 / 1000000001 | TPS 19841.3 | ETA 11:57:04
Time 02:01:41 | Step 146536971 / 1000000001 | TPS 19850.2 | ETA 11:56:35
Time 02:01:51 | Step 146735310 / 1000000001 | TPS 19833.8 | ETA 11:57:00
Time 02:02:01 | Step 146933739 / 1000000001 | TPS 19842.9 | ETA 11:56:31
Time 02:02:11 | Step 147131998 / 1000000001 | TPS 19825.8 | ETA 11:56:58
Time 02:02:21 | Step 147330244 / 1000000001 | TPS 19824.6 | ETA 11:56:50
Time 02:02:31 | Step 147528575 / 1000000001 | TPS 19833 | ETA 11:56:22
Time 02:02:41 | Step 147726768 / 1000000001 | TPS 19819.3 | ETA 11:56:42
Time 02:02:51 | Step 147925092 / 1000000001 | TPS 19832.3 | ETA 11:56:03
Time 02:03:01 | Step 148123507 / 1000000001 | TPS 19841.5 | ETA 11:55:34
Time 02:03:11 | Step 148321954 / 1000000001 | TPS 19844.6 | ETA 11:55:17
Time 02:03:21 | Step 148520413 / 1000000001 | TPS 19845.8 | ETA 11:55:04
Time 02:03:31 | Step 148718654 / 1000000001 | TPS 19824.1 | ETA 11:55:41
Time 02:03:41 | Step 148917081 / 1000000001 | TPS 19842.7 | ETA 11:54:51
Time 02:03:51 | Step 149115200 / 1000000001 | TPS 19811.8 | ETA 11:55:48
Time 02:04:01 | Step 149313450 / 1000000001 | TPS 19825 | ETA 11:55:09
Time 02:04:11 | Step 149511858 / 1000000001 | TPS 19840.8 | ETA 11:54:25
Time 02:04:21 | Step 149710102 / 1000000001 | TPS 19824.4 | ETA 11:54:51
Time 02:04:31 | Step 149908693 / 1000000001 | TPS 19858.9 | ETA 11:53:26
Time 02:04:41 | Step 150107234 / 1000000001 | TPS 19854 | ETA 11:53:27
Time 02:04:51 | Step 150305676 / 1000000001 | TPS 19844.1 | ETA 11:53:38
Time 02:05:01 | Step 150504149 / 1000000001 | TPS 19847.3 | ETA 11:53:21
Time 02:05:11 | Step 150702250 / 1000000001 | TPS 19810.1 | ETA 11:54:31
Time 02:05:21 | Step 150900410 / 1000000001 | TPS 19815.8 | ETA 11:54:09
Time 02:05:31 | Step 151098581 / 1000000001 | TPS 19817 | ETA 11:53:57
Time 02:05:41 | Step 151296918 / 1000000001 | TPS 19833.7 | ETA 11:53:10
Time 02:05:51 | Step 151495340 / 1000000001 | TPS 19842.2 | ETA 11:52:42
Time 02:06:01 | Step 151693707 / 1000000001 | TPS 19836.7 | ETA 11:52:44
Time 02:06:11 | Step 151892095 / 1000000001 | TPS 19838.7 | ETA 11:52:30
Time 02:06:21 | Step 152090151 / 1000000001 | TPS 19805.6 | ETA 11:53:31
Time 02:06:31 | Step 152288322 / 1000000001 | TPS 19817 | ETA 11:52:56
Time 02:06:41 | Step 152486543 / 1000000001 | TPS 19822 | ETA 11:52:36
Time 02:06:51 | Step 152684898 / 1000000001 | TPS 19835.4 | ETA 11:51:57
Time 02:07:01 | Step 152883235 / 1000000001 | TPS 19833.6 | ETA 11:51:51
Time 02:07:11 | Step 153080415 / 1000000001 | TPS 19718 | ETA 11:55:51
Time 02:07:21 | Step 153278868 / 1000000001 | TPS 19845.3 | ETA 11:51:06
Time 02:07:31 | Step 153477418 / 1000000001 | TPS 19855 | ETA 11:50:35
Time 02:07:41 | Step 153675657 / 1000000001 | TPS 19823.8 | ETA 11:51:32
Time 02:07:51 | Step 153874047 / 1000000001 | TPS 19839 | ETA 11:50:49
Time 02:08:01 | Step 154072293 / 1000000001 | TPS 19824.6 | ETA 11:51:10
Time 02:08:11 | Step 154270688 / 1000000001 | TPS 19839.4 | ETA 11:50:28
Time 02:08:21 | Step 154469172 / 1000000001 | TPS 19848.3 | ETA 11:49:59
Time 02:08:31 | Step 154667433 / 1000000001 | TPS 19826.1 | ETA 11:50:37
Time 02:08:41 | Step 154865860 / 1000000001 | TPS 19842.7 | ETA 11:49:51
Time 02:08:51 | Step 155064154 / 1000000001 | TPS 19829.2 | ETA 11:50:10
Time 02:09:01 | Step 155262644 / 1000000001 | TPS 19848.9 | ETA 11:49:18
Time 02:09:11 | Step 155461141 / 1000000001 | TPS 19849.5 | ETA 11:49:07
Time 02:09:21 | Step 155659705 / 1000000001 | TPS 19856.4 | ETA 11:48:42
Time 02:09:31 | Step 155858115 / 1000000001 | TPS 19841 | ETA 11:49:05
Time 02:09:41 | Step 156056480 / 1000000001 | TPS 19836.5 | ETA 11:49:05
Time 02:09:51 | Step 156254861 / 1000000001 | TPS 19838 | ETA 11:48:51
Time 02:10:01 | Step 156453420 / 1000000001 | TPS 19855.8 | ETA 11:48:03
Time 02:10:11 | Step 156651774 / 1000000001 | TPS 19835.3 | ETA 11:48:37
Time 02:10:21 | Step 156850122 / 1000000001 | TPS 19834.8 | ETA 11:48:28
Time 02:10:31 | Step 157048219 / 1000000001 | TPS 19809.6 | ETA 11:49:12
Time 02:10:41 | Step 157246673 / 1000000001 | TPS 19845.3 | ETA 11:47:46
Time 02:10:51 | Step 157445090 / 1000000001 | TPS 19841.7 | ETA 11:47:43
Time 02:11:01 | Step 157643432 / 1000000001 | TPS 19834.2 | ETA 11:47:49
Time 02:11:11 | Step 157842093 / 1000000001 | TPS 19866.1 | ETA 11:46:31
Time 02:11:21 | Step 158040415 / 1000000001 | TPS 19832.1 | ETA 11:47:34
Time 02:11:31 | Step 158239023 / 1000000001 | TPS 19860.8 | ETA 11:46:23
Time 02:11:41 | Step 158437614 / 1000000001 | TPS 19859.1 | ETA 11:46:16
Time 02:11:51 | Step 158635952 / 1000000001 | TPS 19833.7 | ETA 11:47:00
Time 02:12:01 | Step 158834133 / 1000000001 | TPS 19818 | ETA 11:47:24
Time 02:12:11 | Step 159032242 / 1000000001 | TPS 19810.9 | ETA 11:47:29
Time 02:12:21 | Step 159230360 / 1000000001 | TPS 19811.7 | ETA 11:47:17
Time 02:12:31 | Step 159428633 / 1000000001 | TPS 19827.2 | ETA 11:46:34
Time 02:12:41 | Step 159626586 / 1000000001 | TPS 19795.3 | ETA 11:47:33
Time 02:12:51 | Step 159824743 / 1000000001 | TPS 19815.7 | ETA 11:46:39
Time 02:13:01 | Step 160022823 / 1000000001 | TPS 19808 | ETA 11:46:45
Time 02:13:11 | Step 160221275 / 1000000001 | TPS 19845.2 | ETA 11:45:16
Time 02:13:21 | Step 160419557 / 1000000001 | TPS 19828.1 | ETA 11:45:42
Time 02:13:31 | Step 160617609 / 1000000001 | TPS 19805.2 | ETA 11:46:21
Time 02:13:41 | Step 160815875 / 1000000001 | TPS 19826.6 | ETA 11:45:26
Time 02:13:51 | Step 161013602 / 1000000001 | TPS 19772.7 | ETA 11:47:11
Time 02:14:01 | Step 161211758 / 1000000001 | TPS 19815.5 | ETA 11:45:29
Time 02:14:11 | Step 161410086 / 1000000001 | TPS 19832.7 | ETA 11:44:43
Time 02:14:21 | Step 161608298 / 1000000001 | TPS 19821.2 | ETA 11:44:57
Time 02:14:31 | Step 161806703 / 1000000001 | TPS 19840.4 | ETA 11:44:06
Time 02:14:41 | Step 162004728 / 1000000001 | TPS 19802.5 | ETA 11:45:17
Time 02:14:51 | Step 162202913 / 1000000001 | TPS 19818.5 | ETA 11:44:33
Time 02:15:01 | Step 162401153 / 1000000001 | TPS 19824 | ETA 11:44:11
Time 02:15:11 | Step 162599458 / 1000000001 | TPS 19830.4 | ETA 11:43:48
Time 02:15:21 | Step 162797927 / 1000000001 | TPS 19846.9 | ETA 11:43:03
Time 02:15:31 | Step 162996387 / 1000000001 | TPS 19846 | ETA 11:42:54
Time 02:15:41 | Step 163194819 / 1000000001 | TPS 19843.1 | ETA 11:42:50
Time 02:15:51 | Step 163392882 / 1000000001 | TPS 19806.2 | ETA 11:43:59
Time 02:16:01 | Step 163591137 / 1000000001 | TPS 19825.4 | ETA 11:43:08
Time 02:16:11 | Step 163789161 / 1000000001 | TPS 19802.3 | ETA 11:43:47
Time 02:16:21 | Step 163987083 / 1000000001 | TPS 19792.2 | ETA 11:43:59
Time 02:16:31 | Step 164185196 / 1000000001 | TPS 19811.3 | ETA 11:43:08
Time 02:16:41 | Step 164383330 / 1000000001 | TPS 19813.3 | ETA 11:42:54
Time 02:16:51 | Step 164581567 / 1000000001 | TPS 19823.6 | ETA 11:42:22
Time 02:17:01 | Step 164779815 / 1000000001 | TPS 19824.7 | ETA 11:42:10
Time 02:17:11 | Step 164978155 / 1000000001 | TPS 19834 | ETA 11:41:40
Time 02:17:21 | Step 165176364 / 1000000001 | TPS 19820.8 | ETA 11:41:58
Time 02:17:31 | Step 165374602 / 1000000001 | TPS 19823.8 | ETA 11:41:42
Time 02:17:41 | Step 165572806 / 1000000001 | TPS 19820.4 | ETA 11:41:39
Time 02:17:51 | Step 165770897 / 1000000001 | TPS 19809.1 | ETA 11:41:53
Time 02:18:01 | Step 165968847 / 1000000001 | TPS 19795 | ETA 11:42:13
Time 02:18:11 | Step 166166707 / 1000000001 | TPS 19786 | ETA 11:42:22
Time 02:18:21 | Step 166364736 / 1000000001 | TPS 19802.9 | ETA 11:41:36
Time 02:18:31 | Step 166563041 / 1000000001 | TPS 19830.5 | ETA 11:40:28
Time 02:18:41 | Step 166761273 / 1000000001 | TPS 19823.1 | ETA 11:40:33
Time 02:18:51 | Step 166959284 / 1000000001 | TPS 19800.9 | ETA 11:41:10
Time 02:19:01 | Step 167157477 / 1000000001 | TPS 19819.3 | ETA 11:40:21
Time 02:19:11 | Step 167355587 / 1000000001 | TPS 19811 | ETA 11:40:29
Time 02:19:21 | Step 167554081 / 1000000001 | TPS 19849.4 | ETA 11:38:58
Time 02:19:31 | Step 167752286 / 1000000001 | TPS 19820.5 | ETA 11:39:49
Time 02:19:41 | Step 167950641 / 1000000001 | TPS 19835.4 | ETA 11:39:07
Time 02:19:51 | Step 168148915 / 1000000001 | TPS 19827.4 | ETA 11:39:14
Time 02:20:01 | Step 168346947 / 1000000001 | TPS 19803.1 | ETA 11:39:56
Time 02:20:11 | Step 168545207 / 1000000001 | TPS 19826 | ETA 11:38:57
Time 02:20:21 | Step 168743071 / 1000000001 | TPS 19786.4 | ETA 11:40:11
Time 02:20:31 | Step 168941339 / 1000000001 | TPS 19826.7 | ETA 11:38:36
Time 02:20:41 | Step 169139355 / 1000000001 | TPS 19801.5 | ETA 11:39:19
Time 02:20:51 | Step 169337332 / 1000000001 | TPS 19797.7 | ETA 11:39:17
Time 02:21:01 | Step 169535524 / 1000000001 | TPS 19819.2 | ETA 11:38:22
Time 02:21:11 | Step 169733618 / 1000000001 | TPS 19809.3 | ETA 11:38:32
Time 02:21:21 | Step 169931912 / 1000000001 | TPS 19829.4 | ETA 11:37:40
Time 02:21:31 | Step 170130299 / 1000000001 | TPS 19838.6 | ETA 11:37:11
Time 02:21:41 | Step 170328621 / 1000000001 | TPS 19832.1 | ETA 11:37:14
Time 02:21:51 | Step 170527025 / 1000000001 | TPS 19840.3 | ETA 11:36:47
Time 02:22:01 | Step 170725274 / 1000000001 | TPS 19824.8 | ETA 11:37:10
Time 02:22:11 | Step 170923781 / 1000000001 | TPS 19850.6 | ETA 11:36:05
Time 02:22:21 | Step 171122019 / 1000000001 | TPS 19823.7 | ETA 11:36:52
Time 02:22:31 | Step 171320185 / 1000000001 | TPS 19816.6 | ETA 11:36:57
Time 02:22:41 | Step 171518496 / 1000000001 | TPS 19831.1 | ETA 11:36:16
Time 02:22:51 | Step 171716657 / 1000000001 | TPS 19816 | ETA 11:36:38
Time 02:23:01 | Step 171915132 / 1000000001 | TPS 19847.5 | ETA 11:35:22
Time 02:23:11 | Step 172113339 / 1000000001 | TPS 19820.7 | ETA 11:36:08
Time 02:23:21 | Step 172311603 / 1000000001 | TPS 19826.4 | ETA 11:35:46
Time 02:23:31 | Step 172509977 / 1000000001 | TPS 19837.4 | ETA 11:35:13
Time 02:23:41 | Step 172708292 / 1000000001 | TPS 19831.4 | ETA 11:35:16
Time 02:23:51 | Step 172906765 / 1000000001 | TPS 19847.2 | ETA 11:34:33
Time 02:24:01 | Step 173105164 / 1000000001 | TPS 19839.9 | ETA 11:34:38
Time 02:24:11 | Step 173303295 / 1000000001 | TPS 19813 | ETA 11:35:24
Time 02:24:21 | Step 173501779 / 1000000001 | TPS 19848.3 | ETA 11:34:00
Time 02:24:31 | Step 173700247 / 1000000001 | TPS 19846.7 | ETA 11:33:54
Time 02:24:41 | Step 173898601 / 1000000001 | TPS 19835.2 | ETA 11:34:08
Time 02:24:51 | Step 174096950 / 1000000001 | TPS 19834.9 | ETA 11:33:58
Time 02:25:01 | Step 174295097 / 1000000001 | TPS 19814.6 | ETA 11:34:31
Time 02:25:11 | Step 174493413 / 1000000001 | TPS 19831.6 | ETA 11:33:45
Time 02:25:21 | Step 174691516 / 1000000001 | TPS 19810.2 | ETA 11:34:20
Time 02:25:31 | Step 174889788 / 1000000001 | TPS 19827.1 | ETA 11:33:35
Time 02:25:41 | Step 175087763 / 1000000001 | TPS 19797.5 | ETA 11:34:27
Time 02:25:51 | Step 175285851 / 1000000001 | TPS 19808.6 | ETA 11:33:54
Time 02:26:01 | Step 175484194 / 1000000001 | TPS 19834.3 | ETA 11:32:50
Time 02:26:11 | Step 175682349 / 1000000001 | TPS 19815.4 | ETA 11:33:19
Time 02:26:21 | Step 175880691 / 1000000001 | TPS 19834 | ETA 11:32:30
Time 02:26:31 | Step 176078621 / 1000000001 | TPS 19793 | ETA 11:33:46
Time 02:26:41 | Step 176277055 / 1000000001 | TPS 19843.4 | ETA 11:31:51
Time 02:26:51 | Step 176475293 / 1000000001 | TPS 19823.8 | ETA 11:32:22
Time 02:27:01 | Step 176673540 / 1000000001 | TPS 19824.7 | ETA 11:32:10
Time 02:27:11 | Step 176871788 / 1000000001 | TPS 19824.8 | ETA 11:32:00
Time 02:27:21 | Step 177069795 / 1000000001 | TPS 19800.7 | ETA 11:32:40
Time 02:27:31 | Step 177268119 / 1000000001 | TPS 19832.4 | ETA 11:31:24
Time 02:27:41 | Step 177466660 / 1000000001 | TPS 19854 | ETA 11:30:29
Time 02:27:51 | Step 177665166 / 1000000001 | TPS 19850.5 | ETA 11:30:26
Time 02:28:01 | Step 177863619 / 1000000001 | TPS 19845.2 | ETA 11:30:27
Time 02:28:11 | Step 178061754 / 1000000001 | TPS 19813.5 | ETA 11:31:23
Time 02:28:21 | Step 178260352 / 1000000001 | TPS 19859.8 | ETA 11:29:37
Time 02:28:31 | Step 178458623 / 1000000001 | TPS 19827.1 | ETA 11:30:35
Time 02:28:41 | Step 178656809 / 1000000001 | TPS 19818.5 | ETA 11:30:43
Time 02:28:51 | Step 178855027 / 1000000001 | TPS 19821.8 | ETA 11:30:26
Time 02:29:01 | Step 179052745 / 1000000001 | TPS 19771.7 | ETA 11:32:01
Time 02:29:11 | Step 179250988 / 1000000001 | TPS 19824.2 | ETA 11:30:01
Time 02:29:21 | Step 179449351 / 1000000001 | TPS 19836.2 | ETA 11:29:26
Time 02:29:31 | Step 179647803 / 1000000001 | TPS 19845.2 | ETA 11:28:57
Time 02:29:41 | Step 179846233 / 1000000001 | TPS 19842.9 | ETA 11:28:52
Time 02:29:51 | Step 180044548 / 1000000001 | TPS 19831.4 | ETA 11:29:06
Time 02:30:01 | Step 180243334 / 1000000001 | TPS 19878.6 | ETA 11:27:18
Time 02:30:11 | Step 180441858 / 1000000001 | TPS 19852.4 | ETA 11:28:02
Time 02:30:21 | Step 180640099 / 1000000001 | TPS 19824 | ETA 11:28:51
Time 02:30:31 | Step 180838690 / 1000000001 | TPS 19859 | ETA 11:27:28
Time 02:30:41 | Step 181036947 / 1000000001 | TPS 19825.5 | ETA 11:28:28
Time 02:30:51 | Step 181235473 / 1000000001 | TPS 19852.6 | ETA 11:27:22
Time 02:31:01 | Step 181434009 / 1000000001 | TPS 19853.6 | ETA 11:27:10
Time 02:31:11 | Step 181632501 / 1000000001 | TPS 19849.2 | ETA 11:27:09
Time 02:31:21 | Step 181830966 / 1000000001 | TPS 19846.4 | ETA 11:27:04
Time 02:31:31 | Step 182029351 / 1000000001 | TPS 19838.5 | ETA 11:27:11
Time 02:31:41 | Step 182228012 / 1000000001 | TPS 19866.1 | ETA 11:26:04
Time 02:31:51 | Step 182426652 / 1000000001 | TPS 19863.9 | ETA 11:25:58
Time 02:32:01 | Step 182625100 / 1000000001 | TPS 19844.7 | ETA 11:26:28
Time 02:32:11 | Step 182823605 / 1000000001 | TPS 19850.4 | ETA 11:26:06
Time 02:32:21 | Step 183021731 / 1000000001 | TPS 19812.6 | ETA 11:27:15
Time 02:32:31 | Step 183220009 / 1000000001 | TPS 19827.7 | ETA 11:26:33
Time 02:32:41 | Step 183418192 / 1000000001 | TPS 19818.3 | ETA 11:26:43
Time 02:32:51 | Step 183616421 / 1000000001 | TPS 19822.8 | ETA 11:26:24
Time 02:33:01 | Step 183814733 / 1000000001 | TPS 19831.2 | ETA 11:25:56
Time 02:33:11 | Step 184012978 / 1000000001 | TPS 19824.5 | ETA 11:26:00
Time 02:33:21 | Step 184210988 / 1000000001 | TPS 19801 | ETA 11:26:39
Time 02:33:31 | Step 184409000 / 1000000001 | TPS 19801.1 | ETA 11:26:29
Time 02:33:41 | Step 184607346 / 1000000001 | TPS 19834.5 | ETA 11:25:09
Time 02:33:51 | Step 184805734 / 1000000001 | TPS 19838.8 | ETA 11:24:50
Time 02:34:01 | Step 185003918 / 1000000001 | TPS 19818.4 | ETA 11:25:23
Time 02:34:11 | Step 185202114 / 1000000001 | TPS 19819.6 | ETA 11:25:10
Time 02:34:21 | Step 185400125 / 1000000001 | TPS 19801 | ETA 11:25:39
Time 02:34:31 | Step 185598328 / 1000000001 | TPS 19820.2 | ETA 11:24:49
Time 02:34:41 | Step 185796651 / 1000000001 | TPS 19832.3 | ETA 11:24:14
Time 02:34:51 | Step 185994904 / 1000000001 | TPS 19825.2 | ETA 11:24:19
Time 02:35:01 | Step 186193030 / 1000000001 | TPS 19812.6 | ETA 11:24:35
Time 02:35:11 | Step 186391167 / 1000000001 | TPS 19813.6 | ETA 11:24:23
Time 02:35:21 | Step 186589336 / 1000000001 | TPS 19816.9 | ETA 11:24:06
Time 02:35:31 | Step 186787369 / 1000000001 | TPS 19803.2 | ETA 11:24:24
Time 02:35:41 | Step 186985521 / 1000000001 | TPS 19815.2 | ETA 11:23:49
Time 02:35:51 | Step 187183838 / 1000000001 | TPS 19831.7 | ETA 11:23:05
Time 02:36:01 | Step 187381792 / 1000000001 | TPS 19795.4 | ETA 11:24:10
Time 02:36:11 | Step 187579944 / 1000000001 | TPS 19815.2 | ETA 11:23:19
Time 02:36:21 | Step 187778041 / 1000000001 | TPS 19809.6 | ETA 11:23:21
Time 02:36:31 | Step 187976149 / 1000000001 | TPS 19810.8 | ETA 11:23:09
Time 02:36:41 | Step 188174287 / 1000000001 | TPS 19813.7 | ETA 11:22:52
Time 02:36:51 | Step 188372505 / 1000000001 | TPS 19821.7 | ETA 11:22:26
Time 02:37:01 | Step 188570830 / 1000000001 | TPS 19832.4 | ETA 11:21:54
Time 02:37:11 | Step 188769307 / 1000000001 | TPS 19847.7 | ETA 11:21:12
Time 02:37:21 | Step 188967641 / 1000000001 | TPS 19833.4 | ETA 11:21:32
Time 02:37:31 | Step 189162801 / 1000000001 | TPS 19515.9 | ETA 11:32:27
Time 02:37:41 | Step 189360953 / 1000000001 | TPS 19815 | ETA 11:21:50
Time 02:37:51 | Step 189559429 / 1000000001 | TPS 19847.5 | ETA 11:20:33
Time 02:38:01 | Step 189757842 / 1000000001 | TPS 19841.3 | ETA 11:20:36
Time 02:38:11 | Step 189956496 / 1000000001 | TPS 19865.3 | ETA 11:19:36
Time 02:38:21 | Step 190154137 / 1000000001 | TPS 19764.1 | ETA 11:22:55
Time 02:38:31 | Step 190352681 / 1000000001 | TPS 19854.3 | ETA 11:19:39
Time 02:38:41 | Step 190551204 / 1000000001 | TPS 19852.3 | ETA 11:19:33
Time 02:38:51 | Step 190749529 / 1000000001 | TPS 19832.4 | ETA 11:20:04
Time 02:39:01 | Step 190947723 / 1000000001 | TPS 19819.4 | ETA 11:20:21
Time 02:39:11 | Step 191145775 / 1000000001 | TPS 19805.2 | ETA 11:20:40
Time 02:39:21 | Step 191343767 / 1000000001 | TPS 19799.2 | ETA 11:20:42
Time 02:39:31 | Step 191541874 / 1000000001 | TPS 19810.7 | ETA 11:20:09
Time 02:39:41 | Step 191739882 / 1000000001 | TPS 19800.8 | ETA 11:20:19
Time 02:39:51 | Step 191938110 / 1000000001 | TPS 19822.8 | ETA 11:19:24
Time 02:40:01 | Step 192136221 / 1000000001 | TPS 19811.1 | ETA 11:19:38
Time 02:40:11 | Step 192334284 / 1000000001 | TPS 19806.3 | ETA 11:19:38
Time 02:40:21 | Step 192532613 / 1000000001 | TPS 19832.9 | ETA 11:18:33
Time 02:40:31 | Step 192730861 / 1000000001 | TPS 19824.7 | ETA 11:18:40
Time 02:40:41 | Step 192929063 / 1000000001 | TPS 19820.2 | ETA 11:18:39
Time 02:40:51 | Step 193127196 / 1000000001 | TPS 19813.2 | ETA 11:18:43
Time 02:41:01 | Step 193325326 / 1000000001 | TPS 19812.8 | ETA 11:18:34
Time 02:41:11 | Step 193523741 / 1000000001 | TPS 19841.3 | ETA 11:17:26
Time 02:41:21 | Step 193721968 / 1000000001 | TPS 19822.7 | ETA 11:17:54
Time 02:41:31 | Step 193920396 / 1000000001 | TPS 19842.7 | ETA 11:17:03
Time 02:41:41 | Step 194118719 / 1000000001 | TPS 19832.3 | ETA 11:17:14
Time 02:41:51 | Step 194317184 / 1000000001 | TPS 19846.4 | ETA 11:16:35
Time 02:42:01 | Step 194516019 / 1000000001 | TPS 19883.4 | ETA 11:15:10
Time 02:42:11 | Step 194714344 / 1000000001 | TPS 19832.4 | ETA 11:16:44
Time 02:42:21 | Step 194912569 / 1000000001 | TPS 19822.5 | ETA 11:16:54
Time 02:42:31 | Step 195110726 / 1000000001 | TPS 19815.6 | ETA 11:16:58
Time 02:42:41 | Step 195309017 / 1000000001 | TPS 19829 | ETA 11:16:21
Time 02:42:51 | Step 195507677 / 1000000001 | TPS 19865.9 | ETA 11:14:56
Time 02:43:01 | Step 195706034 / 1000000001 | TPS 19835.7 | ETA 11:15:47
Time 02:43:11 | Step 195904436 / 1000000001 | TPS 19840.1 | ETA 11:15:28
Time 02:43:21 | Step 196102644 / 1000000001 | TPS 19820.8 | ETA 11:15:58
Time 02:43:31 | Step 196301083 / 1000000001 | TPS 19843.8 | ETA 11:15:01
Time 02:43:41 | Step 196499560 / 1000000001 | TPS 19847.6 | ETA 11:14:43
Time 02:43:51 | Step 196697980 / 1000000001 | TPS 19841.9 | ETA 11:14:45
Time 02:44:01 | Step 196896671 / 1000000001 | TPS 19869 | ETA 11:13:39
Time 02:44:11 | Step 197095113 / 1000000001 | TPS 19844.1 | ETA 11:14:20
Time 02:44:21 | Step 197293723 / 1000000001 | TPS 19861 | ETA 11:13:36
Time 02:44:31 | Step 197492188 / 1000000001 | TPS 19846.5 | ETA 11:13:55
Time 02:44:41 | Step 197690489 / 1000000001 | TPS 19830 | ETA 11:14:19
Time 02:44:51 | Step 197888876 / 1000000001 | TPS 19838.7 | ETA 11:13:51
Time 02:45:01 | Step 198086876 / 1000000001 | TPS 19800 | ETA 11:15:00
Time 02:45:11 | Step 198285294 / 1000000001 | TPS 19841.7 | ETA 11:13:25
Time 02:45:21 | Step 198483503 / 1000000001 | TPS 19820.9 | ETA 11:13:57
Time 02:45:31 | Step 198681711 / 1000000001 | TPS 19820.8 | ETA 11:13:48
Time 02:45:41 | Step 198880125 / 1000000001 | TPS 19841.4 | ETA 11:12:56
Time 02:45:51 | Step 199078407 / 1000000001 | TPS 19828.2 | ETA 11:13:13
Time 02:46:01 | Step 199276746 / 1000000001 | TPS 19833.9 | ETA 11:12:51
Time 02:46:11 | Step 199474916 / 1000000001 | TPS 19817 | ETA 11:13:15
Time 02:46:21 | Step 199673190 / 1000000001 | TPS 19827.3 | ETA 11:12:44
Time 02:46:31 | Step 199871733 / 1000000001 | TPS 19854.3 | ETA 11:11:40
Time 02:46:41 | Step 200070087 / 1000000001 | TPS 19835.4 | ETA 11:12:08
Time 02:46:51 | Step 200268536 / 1000000001 | TPS 19844.9 | ETA 11:11:39
Time 02:47:01 | Step 200466820 / 1000000001 | TPS 19828.3 | ETA 11:12:02
Time 02:47:11 | Step 200665074 / 1000000001 | TPS 19825.3 | ETA 11:11:58
Time 02:47:21 | Step 200863316 / 1000000001 | TPS 19824.2 | ETA 11:11:51
Time 02:47:31 | Step 201061469 / 1000000001 | TPS 19815.2 | ETA 11:11:59
Time 02:47:41 | Step 201259812 / 1000000001 | TPS 19834.3 | ETA 11:11:10
Time 02:47:51 | Step 201457803 / 1000000001 | TPS 19799.1 | ETA 11:12:12
Time 02:48:01 | Step 201655935 / 1000000001 | TPS 19813.1 | ETA 11:11:33
Time 02:48:11 | Step 201854140 / 1000000001 | TPS 19820.4 | ETA 11:11:08
Time 02:48:21 | Step 202052214 / 1000000001 | TPS 19807.4 | ETA 11:11:25
Time 02:48:31 | Step 202250510 / 1000000001 | TPS 19829.5 | ETA 11:10:30
Time 02:48:41 | Step 202448519 / 1000000001 | TPS 19800.8 | ETA 11:11:18
Time 02:48:51 | Step 202646879 / 1000000001 | TPS 19836 | ETA 11:09:57
Time 02:49:01 | Step 202845165 / 1000000001 | TPS 19828.6 | ETA 11:10:02
Time 02:49:11 | Step 203043072 / 1000000001 | TPS 19790.7 | ETA 11:11:09
Time 02:49:21 | Step 203241288 / 1000000001 | TPS 19821.6 | ETA 11:09:56
Time 02:49:31 | Step 203439444 / 1000000001 | TPS 19815.6 | ETA 11:09:58
[...]
Time 13:14:11 | Step 946808508 / 1000000001 | TPS 19880.4 | ETA 00:44:35
Time 13:14:21 | Step 947006966 / 1000000001 | TPS 19845.8 | ETA 00:44:30
Time 13:14:31 | Step 947205511 / 1000000001 | TPS 19854.3 | ETA 00:44:19
Time 13:14:41 | Step 947404318 / 1000000001 | TPS 19880.7 | ETA 00:44:05
Time 13:14:51 | Step 947602836 / 1000000001 | TPS 19851.7 | ETA 00:43:59
Time 13:15:01 | Step 947801414 / 1000000001 | TPS 19857.8 | ETA 00:43:48
Time 13:15:11 | Step 947999628 / 1000000001 | TPS 19821.2 | ETA 00:43:43
Time 13:15:21 | Step 948197875 / 1000000001 | TPS 19824.7 | ETA 00:43:33
Time 13:15:31 | Step 948396349 / 1000000001 | TPS 19847.3 | ETA 00:43:20
Time 13:15:41 | Step 948594669 / 1000000001 | TPS 19832 | ETA 00:43:12
Time 13:15:51 | Step 948793177 / 1000000001 | TPS 19850.7 | ETA 00:42:59
Time 13:16:01 | Step 948991534 / 1000000001 | TPS 19835.6 | ETA 00:42:51
Time 13:16:11 | Step 949189850 / 1000000001 | TPS 19831.6 | ETA 00:42:42
Time 13:16:21 | Step 949388014 / 1000000001 | TPS 19816.3 | ETA 00:42:34
Time 13:16:31 | Step 949586276 / 1000000001 | TPS 19826.2 | ETA 00:42:22
Time 13:16:41 | Step 949784678 / 1000000001 | TPS 19840.1 | ETA 00:42:11
Time 13:16:51 | Step 949983070 / 1000000001 | TPS 19839 | ETA 00:42:01
Time 13:17:01 | Step 950181524 / 1000000001 | TPS 19845.2 | ETA 00:41:50
Time 13:17:11 | Step 950380191 / 1000000001 | TPS 19866.7 | ETA 00:41:37
Time 13:17:21 | Step 950578731 / 1000000001 | TPS 19854 | ETA 00:41:29
Time 13:17:31 | Step 950777347 / 1000000001 | TPS 19861.6 | ETA 00:41:18
Time 13:17:41 | Step 950976114 / 1000000001 | TPS 19876.6 | ETA 00:41:06
Time 13:17:51 | Step 951174744 / 1000000001 | TPS 19862.9 | ETA 00:40:58
Time 13:18:01 | Step 951373388 / 1000000001 | TPS 19864.4 | ETA 00:40:47
Time 13:18:11 | Step 951571724 / 1000000001 | TPS 19833.6 | ETA 00:40:41
Time 13:18:21 | Step 951770248 / 1000000001 | TPS 19852.4 | ETA 00:40:29
Time 13:18:31 | Step 951969073 / 1000000001 | TPS 19882.5 | ETA 00:40:15
Time 13:18:41 | Step 952167349 / 1000000001 | TPS 19827.6 | ETA 00:40:12
Time 13:18:51 | Step 952365562 / 1000000001 | TPS 19821.2 | ETA 00:40:03
Time 13:19:01 | Step 952563653 / 1000000001 | TPS 19809.1 | ETA 00:39:54
Time 13:19:11 | Step 952762192 / 1000000001 | TPS 19853.9 | ETA 00:39:39
Time 13:19:21 | Step 952960626 / 1000000001 | TPS 19843.4 | ETA 00:39:30
Time 13:19:31 | Step 953158801 / 1000000001 | TPS 19817.4 | ETA 00:39:23
Time 13:19:41 | Step 953357556 / 1000000001 | TPS 19875.4 | ETA 00:39:06
Time 13:19:51 | Step 953556429 / 1000000001 | TPS 19887.3 | ETA 00:38:55
Time 13:20:01 | Step 953755094 / 1000000001 | TPS 19866.4 | ETA 00:38:47
Time 13:20:11 | Step 953953607 / 1000000001 | TPS 19851.2 | ETA 00:38:39
Time 13:20:21 | Step 954151986 / 1000000001 | TPS 19837.8 | ETA 00:38:31
Time 13:20:31 | Step 954350419 / 1000000001 | TPS 19843.3 | ETA 00:38:20
Time 13:20:41 | Step 954548969 / 1000000001 | TPS 19855 | ETA 00:38:09
Time 13:20:51 | Step 954747286 / 1000000001 | TPS 19831.7 | ETA 00:38:01
Time 13:21:01 | Step 954945615 / 1000000001 | TPS 19832.9 | ETA 00:37:51
Time 13:21:11 | Step 955144117 / 1000000001 | TPS 19850.1 | ETA 00:37:39
Time 13:21:21 | Step 955342676 / 1000000001 | TPS 19855.8 | ETA 00:37:29
Time 13:21:31 | Step 955541072 / 1000000001 | TPS 19839.5 | ETA 00:37:20
Time 13:21:41 | Step 955739908 / 1000000001 | TPS 19883.6 | ETA 00:37:05
Time 13:21:51 | Step 955938241 / 1000000001 | TPS 19833.2 | ETA 00:37:01
Time 13:22:01 | Step 956136624 / 1000000001 | TPS 19838.2 | ETA 00:36:51
Time 13:22:11 | Step 956334882 / 1000000001 | TPS 19825.8 | ETA 00:36:42
Time 13:22:21 | Step 956533333 / 1000000001 | TPS 19845 | ETA 00:36:30
Time 13:22:31 | Step 956731025 / 1000000001 | TPS 19769.1 | ETA 00:36:28
Time 13:22:41 | Step 956929729 / 1000000001 | TPS 19870.4 | ETA 00:36:07
Time 13:22:51 | Step 957128107 / 1000000001 | TPS 19837.8 | ETA 00:36:01
Time 13:23:01 | Step 957326558 / 1000000001 | TPS 19845 | ETA 00:35:50
Time 13:23:11 | Step 957525097 / 1000000001 | TPS 19853.8 | ETA 00:35:39
Time 13:23:21 | Step 957723810 / 1000000001 | TPS 19871.3 | ETA 00:35:27
Time 13:23:31 | Step 957922306 / 1000000001 | TPS 19849.6 | ETA 00:35:19
Time 13:23:41 | Step 958120561 / 1000000001 | TPS 19825.5 | ETA 00:35:12
Time 13:23:51 | Step 958318757 / 1000000001 | TPS 19819.6 | ETA 00:35:03
Time 13:24:01 | Step 958517165 / 1000000001 | TPS 19840.7 | ETA 00:34:50
Time 13:24:11 | Step 958715271 / 1000000001 | TPS 19810.6 | ETA 00:34:43
Time 13:24:21 | Step 958913404 / 1000000001 | TPS 19813.2 | ETA 00:34:33
Time 13:24:31 | Step 959111654 / 1000000001 | TPS 19824.9 | ETA 00:34:22
Time 13:24:41 | Step 959309838 / 1000000001 | TPS 19818.4 | ETA 00:34:13
Time 13:24:51 | Step 959508226 / 1000000001 | TPS 19838.7 | ETA 00:34:01
Time 13:25:01 | Step 959706552 / 1000000001 | TPS 19832.6 | ETA 00:33:51
Time 13:25:11 | Step 959904824 / 1000000001 | TPS 19827.1 | ETA 00:33:42
Time 13:25:21 | Step 960103648 / 1000000001 | TPS 19882.4 | ETA 00:33:26
Time 13:25:31 | Step 960301891 / 1000000001 | TPS 19824.3 | ETA 00:33:22
Time 13:25:41 | Step 960500438 / 1000000001 | TPS 19854.7 | ETA 00:33:09
Time 13:25:51 | Step 960698683 / 1000000001 | TPS 19824.5 | ETA 00:33:02
Time 13:26:01 | Step 960896987 / 1000000001 | TPS 19830.4 | ETA 00:32:51
Time 13:26:11 | Step 961094927 / 1000000001 | TPS 19793.9 | ETA 00:32:45
Time 13:26:21 | Step 961293350 / 1000000001 | TPS 19842.2 | ETA 00:32:30
Time 13:26:31 | Step 961491888 / 1000000001 | TPS 19853.6 | ETA 00:32:19
Time 13:26:41 | Step 961690250 / 1000000001 | TPS 19836.2 | ETA 00:32:11
Time 13:26:51 | Step 961888630 / 1000000001 | TPS 19838 | ETA 00:32:01
Time 13:27:01 | Step 962086700 / 1000000001 | TPS 19807 | ETA 00:31:54
Time 13:27:11 | Step 962284997 / 1000000001 | TPS 19829.7 | ETA 00:31:41
Time 13:27:21 | Step 962483568 / 1000000001 | TPS 19857 | ETA 00:31:29
Time 13:27:31 | Step 962681617 / 1000000001 | TPS 19804.8 | ETA 00:31:24
Time 13:27:41 | Step 962879755 / 1000000001 | TPS 19813.7 | ETA 00:31:13
Time 13:27:51 | Step 963077979 / 1000000001 | TPS 19822.4 | ETA 00:31:02
Time 13:28:01 | Step 963276484 / 1000000001 | TPS 19850.4 | ETA 00:30:50
Time 13:28:11 | Step 963475222 / 1000000001 | TPS 19873.7 | ETA 00:30:37
Time 13:28:21 | Step 963673631 / 1000000001 | TPS 19840.8 | ETA 00:30:30
Time 13:28:31 | Step 963872169 / 1000000001 | TPS 19853.8 | ETA 00:30:19
Time 13:28:41 | Step 964070534 / 1000000001 | TPS 19836.5 | ETA 00:30:11
Time 13:28:51 | Step 964269359 / 1000000001 | TPS 19882.5 | ETA 00:29:57
Time 13:29:01 | Step 964467740 / 1000000001 | TPS 19838.1 | ETA 00:29:51
Time 13:29:11 | Step 964665983 / 1000000001 | TPS 19824.3 | ETA 00:29:42
Time 13:29:21 | Step 964864519 / 1000000001 | TPS 19853.5 | ETA 00:29:29
Time 13:29:31 | Step 965062694 / 1000000001 | TPS 19817.5 | ETA 00:29:22
Time 13:29:41 | Step 965260809 / 1000000001 | TPS 19811.5 | ETA 00:29:13
Time 13:29:51 | Step 965458689 / 1000000001 | TPS 19788 | ETA 00:29:05
Time 13:30:01 | Step 965656766 / 1000000001 | TPS 19807.6 | ETA 00:28:53
Time 13:30:11 | Step 965855057 / 1000000001 | TPS 19829.1 | ETA 00:28:41
Time 13:30:21 | Step 966053182 / 1000000001 | TPS 19812.5 | ETA 00:28:33
Time 13:30:31 | Step 966251638 / 1000000001 | TPS 19845.5 | ETA 00:28:20
Time 13:30:41 | Step 966449887 / 1000000001 | TPS 19824.9 | ETA 00:28:12
Time 13:30:51 | Step 966648661 / 1000000001 | TPS 19877.4 | ETA 00:27:57
Time 13:31:01 | Step 966847331 / 1000000001 | TPS 19867 | ETA 00:27:48
Time 13:31:11 | Step 967045778 / 1000000001 | TPS 19844.6 | ETA 00:27:40
Time 13:31:21 | Step 967244304 / 1000000001 | TPS 19852.6 | ETA 00:27:29
Time 13:31:31 | Step 967442722 / 1000000001 | TPS 19841.8 | ETA 00:27:20
Time 13:31:41 | Step 967641394 / 1000000001 | TPS 19867.2 | ETA 00:27:08
Time 13:31:51 | Step 967839957 / 1000000001 | TPS 19856.2 | ETA 00:26:59
Time 13:32:01 | Step 968038277 / 1000000001 | TPS 19832 | ETA 00:26:51
Time 13:32:11 | Step 968236741 / 1000000001 | TPS 19846.4 | ETA 00:26:40
Time 13:32:21 | Step 968435145 / 1000000001 | TPS 19840.3 | ETA 00:26:30
Time 13:32:31 | Step 968633748 / 1000000001 | TPS 19860.3 | ETA 00:26:19
Time 13:32:41 | Step 968832053 / 1000000001 | TPS 19830.5 | ETA 00:26:11
Time 13:32:51 | Step 969030392 / 1000000001 | TPS 19833.9 | ETA 00:26:01
Time 13:33:01 | Step 969229002 / 1000000001 | TPS 19861 | ETA 00:25:49
Time 13:33:11 | Step 969427665 / 1000000001 | TPS 19866.3 | ETA 00:25:38
Time 13:33:21 | Step 969626291 / 1000000001 | TPS 19862.5 | ETA 00:25:29
Time 13:33:31 | Step 969824717 / 1000000001 | TPS 19842.5 | ETA 00:25:20
Time 13:33:41 | Step 970023264 / 1000000001 | TPS 19854.6 | ETA 00:25:09
Time 13:33:51 | Step 970222073 / 1000000001 | TPS 19880.7 | ETA 00:24:57
Time 13:34:01 | Step 970420724 / 1000000001 | TPS 19865.1 | ETA 00:24:49
Time 13:34:11 | Step 970619341 / 1000000001 | TPS 19861.7 | ETA 00:24:39
Time 13:34:21 | Step 970817450 / 1000000001 | TPS 19810.8 | ETA 00:24:33
Time 13:34:31 | Step 971015979 / 1000000001 | TPS 19852.8 | ETA 00:24:19
Time 13:34:41 | Step 971214133 / 1000000001 | TPS 19815.3 | ETA 00:24:12
Time 13:34:51 | Step 971412265 / 1000000001 | TPS 19813.1 | ETA 00:24:02
Time 13:35:01 | Step 971610570 / 1000000001 | TPS 19830.4 | ETA 00:23:51
Time 13:35:11 | Step 971808511 / 1000000001 | TPS 19794.1 | ETA 00:23:44
Time 13:35:21 | Step 972006556 / 1000000001 | TPS 19804.5 | ETA 00:23:33
Time 13:35:31 | Step 972204691 / 1000000001 | TPS 19813.4 | ETA 00:23:22
Time 13:35:41 | Step 972402857 / 1000000001 | TPS 19816.6 | ETA 00:23:12
Time 13:35:51 | Step 972601259 / 1000000001 | TPS 19840.1 | ETA 00:23:00
Time 13:36:01 | Step 972799568 / 1000000001 | TPS 19830.8 | ETA 00:22:51
Time 13:36:11 | Step 972997970 / 1000000001 | TPS 19840.2 | ETA 00:22:40
Time 13:36:21 | Step 973193342 / 1000000001 | TPS 19537.2 | ETA 00:22:52
Time 13:36:31 | Step 973391780 / 1000000001 | TPS 19843.7 | ETA 00:22:20
Time 13:36:41 | Step 973590168 / 1000000001 | TPS 19838.8 | ETA 00:22:11
Time 13:36:51 | Step 973788549 / 1000000001 | TPS 19838 | ETA 00:22:01
Time 13:37:01 | Step 973987089 / 1000000001 | TPS 19853.9 | ETA 00:21:50
Time 13:37:11 | Step 974185492 / 1000000001 | TPS 19840.3 | ETA 00:21:41
Time 13:37:21 | Step 974383729 / 1000000001 | TPS 19823.7 | ETA 00:21:32
Time 13:37:31 | Step 974582270 / 1000000001 | TPS 19854.1 | ETA 00:21:20
Time 13:37:41 | Step 974781166 / 1000000001 | TPS 19889.6 | ETA 00:21:07
Time 13:37:51 | Step 974979939 / 1000000001 | TPS 19877.2 | ETA 00:20:58
Time 13:38:01 | Step 975178386 / 1000000001 | TPS 19844.6 | ETA 00:20:50
Time 13:38:11 | Step 975377170 / 1000000001 | TPS 19878.4 | ETA 00:20:38
Time 13:38:21 | Step 975575900 / 1000000001 | TPS 19873 | ETA 00:20:29
Time 13:38:31 | Step 975774363 / 1000000001 | TPS 19846.2 | ETA 00:20:20
Time 13:38:41 | Step 975972777 / 1000000001 | TPS 19841.2 | ETA 00:20:10
Time 13:38:51 | Step 976171284 / 1000000001 | TPS 19850.7 | ETA 00:20:00
Time 13:39:01 | Step 976369900 / 1000000001 | TPS 19861.5 | ETA 00:19:49
Time 13:39:11 | Step 976568385 / 1000000001 | TPS 19848.5 | ETA 00:19:40
Time 13:39:21 | Step 976766560 / 1000000001 | TPS 19817.4 | ETA 00:19:32
Time 13:39:31 | Step 976964925 / 1000000001 | TPS 19836.4 | ETA 00:19:21
Time 13:39:41 | Step 977163122 / 1000000001 | TPS 19819.6 | ETA 00:19:12
Time 13:39:51 | Step 977361432 / 1000000001 | TPS 19830.9 | ETA 00:19:01
Time 13:40:01 | Step 977560002 / 1000000001 | TPS 19856.9 | ETA 00:18:50
Time 13:40:11 | Step 977758797 / 1000000001 | TPS 19879.4 | ETA 00:18:38
Time 13:40:21 | Step 977957273 / 1000000001 | TPS 19847.5 | ETA 00:18:30
Time 13:40:31 | Step 978155631 / 1000000001 | TPS 19835.8 | ETA 00:18:21
Time 13:40:41 | Step 978354023 / 1000000001 | TPS 19839.2 | ETA 00:18:11
Time 13:40:51 | Step 978552068 / 1000000001 | TPS 19804.5 | ETA 00:18:02
Time 13:41:01 | Step 978750666 / 1000000001 | TPS 19859.8 | ETA 00:17:49
Time 13:41:11 | Step 978949167 / 1000000001 | TPS 19850.1 | ETA 00:17:40
Time 13:41:21 | Step 979147398 / 1000000001 | TPS 19823 | ETA 00:17:31
Time 13:41:31 | Step 979345478 / 1000000001 | TPS 19807.9 | ETA 00:17:22
Time 13:41:41 | Step 979543717 / 1000000001 | TPS 19823.9 | ETA 00:17:11
Time 13:41:51 | Step 979742147 / 1000000001 | TPS 19843 | ETA 00:17:00
Time 13:42:01 | Step 979940701 / 1000000001 | TPS 19855.2 | ETA 00:16:50
Time 13:42:11 | Step 980139179 / 1000000001 | TPS 19847.7 | ETA 00:16:40
Time 13:42:21 | Step 980337975 / 1000000001 | TPS 19879.6 | ETA 00:16:29
Time 13:42:31 | Step 980536142 / 1000000001 | TPS 19816.6 | ETA 00:16:22
Time 13:42:41 | Step 980735352 / 1000000001 | TPS 19920.9 | ETA 00:16:07
Time 13:42:51 | Step 980934107 / 1000000001 | TPS 19875.5 | ETA 00:15:59
Time 13:43:01 | Step 981132665 / 1000000001 | TPS 19855.8 | ETA 00:15:50
Time 13:43:11 | Step 981331366 / 1000000001 | TPS 19870.1 | ETA 00:15:39
Time 13:43:21 | Step 981529608 / 1000000001 | TPS 19824.1 | ETA 00:15:31
Time 13:43:31 | Step 981728007 / 1000000001 | TPS 19839.9 | ETA 00:15:20
Time 13:43:41 | Step 981926326 / 1000000001 | TPS 19831.8 | ETA 00:15:11
Time 13:43:51 | Step 982124484 / 1000000001 | TPS 19815.7 | ETA 00:15:02
Time 13:44:01 | Step 982323091 / 1000000001 | TPS 19860.6 | ETA 00:14:50
Time 13:44:11 | Step 982521346 / 1000000001 | TPS 19825.5 | ETA 00:14:41
Time 13:44:21 | Step 982720020 / 1000000001 | TPS 19867.3 | ETA 00:14:29
Time 13:44:31 | Step 982918480 / 1000000001 | TPS 19845.9 | ETA 00:14:20
Time 13:44:41 | Step 983116764 / 1000000001 | TPS 19828.4 | ETA 00:14:11
Time 13:44:51 | Step 983315485 / 1000000001 | TPS 19872.1 | ETA 00:13:59
Time 13:45:01 | Step 983514133 / 1000000001 | TPS 19864.8 | ETA 00:13:49
Time 13:45:11 | Step 983712871 / 1000000001 | TPS 19873.7 | ETA 00:13:39
Time 13:45:21 | Step 983911362 / 1000000001 | TPS 19849.1 | ETA 00:13:30
Time 13:45:31 | Step 984109835 / 1000000001 | TPS 19847.3 | ETA 00:13:20
Time 13:45:41 | Step 984308221 / 1000000001 | TPS 19838.5 | ETA 00:13:10
Time 13:45:51 | Step 984506482 / 1000000001 | TPS 19826 | ETA 00:13:01
Time 13:46:01 | Step 984705127 / 1000000001 | TPS 19864.4 | ETA 00:12:49
Time 13:46:11 | Step 984903446 / 1000000001 | TPS 19831.9 | ETA 00:12:41
Time 13:46:21 | Step 985101961 / 1000000001 | TPS 19851.5 | ETA 00:12:30
Time 13:46:31 | Step 985300628 / 1000000001 | TPS 19866.7 | ETA 00:12:19
Time 13:46:41 | Step 985498851 / 1000000001 | TPS 19822.3 | ETA 00:12:11
Time 13:46:51 | Step 985697243 / 1000000001 | TPS 19839.2 | ETA 00:12:00
Time 13:47:01 | Step 985895331 / 1000000001 | TPS 19808.8 | ETA 00:11:52
Time 13:47:11 | Step 986093717 / 1000000001 | TPS 19838.6 | ETA 00:11:40
Time 13:47:21 | Step 986292118 / 1000000001 | TPS 19840.1 | ETA 00:11:30
Time 13:47:31 | Step 986490534 / 1000000001 | TPS 19841.6 | ETA 00:11:20
Time 13:47:41 | Step 986688820 / 1000000001 | TPS 19828.5 | ETA 00:11:11
Time 13:47:51 | Step 986887258 / 1000000001 | TPS 19843.7 | ETA 00:11:00
Time 13:48:01 | Step 987085787 / 1000000001 | TPS 19852.8 | ETA 00:10:50
Time 13:48:11 | Step 987284169 / 1000000001 | TPS 19838.2 | ETA 00:10:40
Time 13:48:21 | Step 987482536 / 1000000001 | TPS 19836.7 | ETA 00:10:31
Time 13:48:31 | Step 987681046 / 1000000001 | TPS 19851 | ETA 00:10:20
Time 13:48:41 | Step 987879396 / 1000000001 | TPS 19834.9 | ETA 00:10:11
Time 13:48:51 | Step 988077657 / 1000000001 | TPS 19825.9 | ETA 00:10:01
Time 13:49:01 | Step 988275959 / 1000000001 | TPS 19830.1 | ETA 00:09:51
Time 13:49:11 | Step 988474736 / 1000000001 | TPS 19877.7 | ETA 00:09:39
Time 13:49:21 | Step 988673285 / 1000000001 | TPS 19854.7 | ETA 00:09:30
Time 13:49:31 | Step 988871469 / 1000000001 | TPS 19818.4 | ETA 00:09:21
Time 13:49:41 | Step 989069993 / 1000000001 | TPS 19852.4 | ETA 00:09:10
Time 13:49:51 | Step 989268406 / 1000000001 | TPS 19841.3 | ETA 00:09:00
Time 13:50:01 | Step 989467115 / 1000000001 | TPS 19870.9 | ETA 00:08:50
Time 13:50:11 | Step 989665730 / 1000000001 | TPS 19861.5 | ETA 00:08:40
Time 13:50:21 | Step 989864135 / 1000000001 | TPS 19840.4 | ETA 00:08:30
Time 13:50:31 | Step 990062793 / 1000000001 | TPS 19865.8 | ETA 00:08:20
Time 13:50:41 | Step 990261034 / 1000000001 | TPS 19824 | ETA 00:08:11
Time 13:50:51 | Step 990459468 / 1000000001 | TPS 19843.4 | ETA 00:08:00
Time 13:51:01 | Step 990657846 / 1000000001 | TPS 19837.8 | ETA 00:07:50
Time 13:51:11 | Step 990855933 / 1000000001 | TPS 19808.6 | ETA 00:07:41
Time 13:51:21 | Step 991054287 / 1000000001 | TPS 19835.4 | ETA 00:07:30
Time 13:51:31 | Step 991252493 / 1000000001 | TPS 19820.6 | ETA 00:07:21
Time 13:51:41 | Step 991450664 / 1000000001 | TPS 19817 | ETA 00:07:11
Time 13:51:51 | Step 991649073 / 1000000001 | TPS 19840.8 | ETA 00:07:00
Time 13:52:01 | Step 991847335 / 1000000001 | TPS 19826.2 | ETA 00:06:51
Time 13:52:11 | Step 992045606 / 1000000001 | TPS 19827 | ETA 00:06:41
Time 13:52:21 | Step 992244175 / 1000000001 | TPS 19856.9 | ETA 00:06:30
Time 13:52:31 | Step 992442627 / 1000000001 | TPS 19845.1 | ETA 00:06:20
Time 13:52:41 | Step 992641019 / 1000000001 | TPS 19839.1 | ETA 00:06:10
Time 13:52:51 | Step 992839399 / 1000000001 | TPS 19838 | ETA 00:06:00
Time 13:53:01 | Step 993036701 / 1000000001 | TPS 19730.2 | ETA 00:05:52
Time 13:53:11 | Step 993235151 / 1000000001 | TPS 19844.9 | ETA 00:05:40
Time 13:53:21 | Step 993433480 / 1000000001 | TPS 19832.9 | ETA 00:05:31
Time 13:53:31 | Step 993631982 / 1000000001 | TPS 19850.2 | ETA 00:05:20
Time 13:53:41 | Step 993830490 / 1000000001 | TPS 19850.8 | ETA 00:05:10
Time 13:53:51 | Step 994027673 / 1000000001 | TPS 19718.2 | ETA 00:05:02
Time 13:54:01 | Step 994226166 / 1000000001 | TPS 19849.2 | ETA 00:04:50
Time 13:54:11 | Step 994424851 / 1000000001 | TPS 19868.5 | ETA 00:04:40
Time 13:54:21 | Step 994623120 / 1000000001 | TPS 19826.8 | ETA 00:04:31
Time 13:54:31 | Step 994821544 / 1000000001 | TPS 19842.4 | ETA 00:04:20
Time 13:54:41 | Step 995020023 / 1000000001 | TPS 19847.7 | ETA 00:04:10
Time 13:54:51 | Step 995218362 / 1000000001 | TPS 19833.8 | ETA 00:04:01
Time 13:55:01 | Step 995416972 / 1000000001 | TPS 19860.9 | ETA 00:03:50
Time 13:55:11 | Step 995615275 / 1000000001 | TPS 19830.2 | ETA 00:03:41
Time 13:55:21 | Step 995813635 / 1000000001 | TPS 19835.9 | ETA 00:03:31
Time 13:55:31 | Step 996012167 / 1000000001 | TPS 19853.1 | ETA 00:03:20
Time 13:55:41 | Step 996210369 / 1000000001 | TPS 19820.2 | ETA 00:03:11
Time 13:55:51 | Step 996408732 / 1000000001 | TPS 19836.3 | ETA 00:03:01
Time 13:56:01 | Step 996606904 / 1000000001 | TPS 19817.1 | ETA 00:02:51
Time 13:56:11 | Step 996805256 / 1000000001 | TPS 19835.1 | ETA 00:02:41
Time 13:56:21 | Step 997003510 / 1000000001 | TPS 19825.2 | ETA 00:02:31
Time 13:56:31 | Step 997201737 / 1000000001 | TPS 19822.6 | ETA 00:02:21
Time 13:56:41 | Step 997400148 / 1000000001 | TPS 19841 | ETA 00:02:11
Time 13:56:51 | Step 997598384 / 1000000001 | TPS 19823.6 | ETA 00:02:01
Time 13:57:01 | Step 997796584 / 1000000001 | TPS 19819.9 | ETA 00:01:51
Time 13:57:11 | Step 997995001 / 1000000001 | TPS 19841.5 | ETA 00:01:41
Time 13:57:21 | Step 998193136 / 1000000001 | TPS 19813.4 | ETA 00:01:31
Time 13:57:31 | Step 998391583 / 1000000001 | TPS 19844.6 | ETA 00:01:21
Time 13:57:41 | Step 998589853 / 1000000001 | TPS 19827 | ETA 00:01:11
Time 13:57:51 | Step 998788102 / 1000000001 | TPS 19824.8 | ETA 00:01:01
Time 13:58:01 | Step 998986595 / 1000000001 | TPS 19849.3 | ETA 00:00:51
Time 13:58:11 | Step 999184674 / 1000000001 | TPS 19807.8 | ETA 00:00:41
Time 13:58:21 | Step 999382801 / 1000000001 | TPS 19812.5 | ETA 00:00:31
Time 13:58:31 | Step 999580938 / 1000000001 | TPS 19813.6 | ETA 00:00:21
Time 13:58:41 | Step 999779412 / 1000000001 | TPS 19847.4 | ETA 00:00:11
Time 13:58:51 | Step 999977755 / 1000000001 | TPS 19834.3 | ETA 00:00:01
Time 13:58:52 | Step 1000000001 / 1000000001 | TPS 19786 | ETA 00:00:00
Average TPS: 19868.4
---------
-- Neighborlist stats:
120454283 normal updates / 3333334 forced updates / 0 dangerous updates
n_neigh_min: 0 / n_neigh_max: 18 / n_neigh_avg: 10.0726
shortest rebuild period: 5
-- Cell list stats:
Dimension: 43, 43, 43
n_min    : 0 / n_max: 7 / n_avg: 0.0848982
** run complete **
