HOOMD-blue 2.9.6 CUDA (11.1) SINGLE SSE SSE2 
Compiled: 05/10/21
Copyright (c) 2009-2019 The Regents of the University of Michigan.
-----
You are using HOOMD-blue. Please cite the following:
* J A Anderson, J Glaser, and S C Glotzer. "HOOMD-blue: A Python package for
  high-performance molecular dynamics and hard particle Monte Carlo
  simulations", Computational Materials Science 173 (2020) 109363
-----
HOOMD-blue is running on the following GPU(s):
 [0] NVIDIA A100-SXM4-80GB 108 SM_8.0 @ 1.41 GHz, 81050 MiB DRAM, MNG
Running on the GPU
Charges (in mV) are:
[-54.0, 44.0]
[95.0, 105.0]
Particle types: ['N', 'P']
Radius of N, P and ionic radii(s):  [95.0, 105.0, 99.75]
radiusN: 95.0
radiusP: 105.0
Electrostatic prefactors are:  {('N', 'N'): 299.83507046393714, ('N', 'P'): -256.52556028581284, ('P', 'P'): 220.02192305215914}
Steric prefactors are:  {('N', 'N'): 368.3741785809289, ('N', 'P'): 387.76229324308304, ('P', 'P'): 407.15040790523716}
Lattice_type:  sc
Lattice site is: P
Putting satellite particles at a distance of 286.000000 from center particles
num_satellite_per_center: 1
snapshot_creation.py:075  |      center_unit_cell = lattice(a=lattice_spacing*2*radius_latticesite)
center_in_uc: 1
satellite_in_uc: 1
Total number of particles in each unit cell: 2
Total lattice spacing: 885.78
Setting mass N: 0.740633 (mass P: 1.000000)
['P', 'N']
Total number of lattice sites: 6750
[[-6200.45996094 -6200.45996094 -6200.45996094]
 [-6200.45996094 -5914.45996094 -6200.45996094]
 [-6200.45996094 -6200.45996094 -5314.68017578]
 ...
 [ 6200.45947266  6486.46044922  5314.68017578]
 [ 6200.45947266  6200.45947266  6200.45947266]
 [ 6200.45947266  6486.46044922  6200.45947266]]
Seed positions:
None
snapshot_creation.py:172  |      system=hoomd.init.read_snapshot(snapshot)
notice(2): Group "all" created containing 6750 particles
Box size:
Box: Lx=13286.7001953125 Ly=13286.7001953125 Lz=13286.7001953125 xy=0.0 xz=0.0 yz=0.0 dimensions=3
max_x,max_y,max_z
6643.35009765625 6643.35009765625 6643.35009765625
snapshot_creation.py:183  |          hoomd.update.box_resize(Lx = 2.*max_x+8*max_radius, Ly = 2.*max_y+8*max_radius, Lz=2.*max_z+8*max_radius, period=None,scale_particles=False)
Updated box size in presence of closed walls:
Box: Lx=14126.7001953125 Ly=14126.7001953125 Lz=14126.7001953125 xy=0.0 xz=0.0 yz=0.0 dimensions=3
Number of particles in system before adding any seed crystal:  6750
Removing lattice particles that overlap with particles of the seed crystal.........
add_interactions.py:006  |  nl = hoomd.md.nlist.cell()
add_interactions.py:007  |  nl.reset_exclusions(exclusions = ['1-2', 'body','constraint'])
notice(2): -- Neighborlist exclusion statistics -- :
notice(2): Particles with 0 exclusions             : 6750
notice(2): Neighbors included by diameter          : no
notice(2): Neighbors excluded when in the same body: no
Turning on closed walls along x/y/z with max_z: 7063.35009765625
add_interactions.py:032  |      wall_force = hoomd.md.wall.slj(wall_group,r_cut=max_radius*(2.0**(1.0/6.0)))
notice(2): Notice: slj set d_max=210.0
add_interactions.py:033  |      wall_force.force_coeff.set('N',epsilon=1,sigma=radiusN,alpha=0,r_cut=radiusN*(2.0**(1.0/6.0)))
add_interactions.py:034  |      wall_force.force_coeff.set('P',epsilon=1,sigma=radiusP,alpha=0,r_cut=radiusP*(2.0**(1.0/6.0)))
add_interactions.py:057  |  table = hoomd.md.pair.table(width=5000,nlist=nl)
*******************************************************************************************************************************************************************************
Setting potential for pair ('N', 'N') with radius_sum 190.0
add_interactions.py:080  |          table.pair_coeff.set(typei,typej, func=screened_potential_shifted_force,rmin=1.00005*radius_sum, rmax=potential_range,coeff=dict(radius_sum=radius_sum, steric_prefactor=steric_prefactors[key],electrostatic_prefactor=electrostatic_prefactors[key],H=sum_brush_lengths,d=debye_length),)
*******************************************************************************************************************************************************************************
Setting potential for pair ('N', 'P') with radius_sum 200.0
add_interactions.py:080  |          table.pair_coeff.set(typei,typej, func=screened_potential_shifted_force,rmin=1.00005*radius_sum, rmax=potential_range,coeff=dict(radius_sum=radius_sum, steric_prefactor=steric_prefactors[key],electrostatic_prefactor=electrostatic_prefactors[key],H=sum_brush_lengths,d=debye_length),)
*******************************************************************************************************************************************************************************
Setting potential for pair ('P', 'P') with radius_sum 210.0
add_interactions.py:080  |          table.pair_coeff.set(typei,typej, func=screened_potential_shifted_force,rmin=1.00005*radius_sum, rmax=potential_range,coeff=dict(radius_sum=radius_sum, steric_prefactor=steric_prefactors[key],electrostatic_prefactor=electrostatic_prefactors[key],H=sum_brush_lengths,d=debye_length),)
i,j,key,potential_min, potential_min_location
(0, 0, ('N', 'N'), -1.6940658945086007e-21, 295.7319999999562)
(0, 1, ('N', 'P'), -7.000511258039415, 218.53249439999755)
(1, 1, ('P', 'P'), 0.0, 315.7320000000156)
run_dlvo_spheres_metal.py:011  |  all = hoomd.group.all()
run_dlvo_spheres_metal.py:000  |  from add_interactions import *

if temperature.find(':')>0:
    temp_list = np.array( temperature.split(':') ,dtype=float)
    assert len(temp_list)%2==0 and len(temp_list)>=0,"must give an even number of temperature arguments"
    temp_list = [tuple(x) for x in temp_list.reshape((-1,2))]
    temperature = hoomd.variant.linear_interp(points=temp_list)
else:
    temperature = float(temperature)

all = hoomd.group.all()


hoomd.analyze.log(filename=outputlogfile,
mode: langevin
run_dlvo_spheres_metal.py:029  |      hoomd.md.integrate.mode_standard(dt=dt)
run_dlvo_spheres_metal.py:030  |      ld=hoomd.md.integrate.langevin(group=all, kT=temperature, seed=seed)
notice(2): integrate.langevin/bd is using specified gamma values
Using gamma value as: 0.001
run_dlvo_spheres_metal.py:033  |          ld.set_gamma(particle_type,gamma)
run_dlvo_spheres_metal.py:033  |          ld.set_gamma(particle_type,gamma)
run_dlvo_spheres_metal.py:057  |  hoomd.dump.gsd(outputgsdfile, period=dump_frequency, group=all, overwrite=True,dynamic=['attribute','momentum','topology'])
run_dlvo_spheres_metal.py:058  |  hoomd.run(nsteps)
** starting run **
Time 00:00:10 | Step 204715 / 1000000001 | TPS 20471.4 | ETA 13:33:58
Time 00:00:20 | Step 414497 / 1000000001 | TPS 20978.1 | ETA 13:14:08
Time 00:00:30 | Step 624388 / 1000000001 | TPS 20989.1 | ETA 13:13:34
Time 00:00:40 | Step 832921 / 1000000001 | TPS 20853.2 | ETA 13:18:34
Time 00:00:50 | Step 1042053 / 1000000001 | TPS 20913.1 | ETA 13:16:06
Time 00:01:00 | Step 1252387 / 1000000001 | TPS 21033.4 | ETA 13:11:23
Time 00:01:10 | Step 1464089 / 1000000001 | TPS 21170.2 | ETA 13:06:07
Time 00:01:20 | Step 1672027 / 1000000001 | TPS 20793.8 | ETA 13:20:10
Time 00:01:30 | Step 1879481 / 1000000001 | TPS 20745.3 | ETA 13:21:53
Time 00:01:40 | Step 2083632 / 1000000001 | TPS 20415.1 | ETA 13:34:41
Time 00:01:50 | Step 2284472 / 1000000001 | TPS 20084 | ETA 13:47:57
Time 00:02:00 | Step 2486854 / 1000000001 | TPS 20238 | ETA 13:41:29
Time 00:02:10 | Step 2687757 / 1000000001 | TPS 20090.3 | ETA 13:47:21
Time 00:02:20 | Step 2883795 / 1000000001 | TPS 19603.7 | ETA 14:07:43
Time 00:02:30 | Step 3080838 / 1000000001 | TPS 19704.2 | ETA 14:03:14
Time 00:02:40 | Step 3277140 / 1000000001 | TPS 19630.2 | ETA 14:06:15
Time 00:02:50 | Step 3473443 / 1000000001 | TPS 19630.3 | ETA 14:06:04
Time 00:03:00 | Step 3669005 / 1000000001 | TPS 19556.2 | ETA 14:09:07
Time 00:03:10 | Step 3866153 / 1000000001 | TPS 19714.7 | ETA 14:02:07
Time 00:03:20 | Step 4060576 / 1000000001 | TPS 19442.2 | ETA 14:13:45
Time 00:03:30 | Step 4255439 / 1000000001 | TPS 19486.3 | ETA 14:11:39
Time 00:03:40 | Step 4452017 / 1000000001 | TPS 19657.8 | ETA 14:04:03
Time 00:03:50 | Step 4649729 / 1000000001 | TPS 19771.2 | ETA 13:59:03
Time 00:04:00 | Step 4846812 / 1000000001 | TPS 19708.3 | ETA 14:01:34
Time 00:04:10 | Step 5042206 / 1000000001 | TPS 19539.3 | ETA 14:08:40
Time 00:04:20 | Step 5237132 / 1000000001 | TPS 19492.5 | ETA 14:10:33
Time 00:04:30 | Step 5432807 / 1000000001 | TPS 19567.3 | ETA 14:07:08
Time 00:04:40 | Step 5627796 / 1000000001 | TPS 19498.8 | ETA 14:09:56
Time 00:04:50 | Step 5819986 / 1000000001 | TPS 19218.9 | ETA 14:22:09
Time 00:05:00 | Step 6012325 / 1000000001 | TPS 19233.8 | ETA 14:21:19
Time 00:05:10 | Step 6203685 / 1000000001 | TPS 19136 | ETA 14:25:33
Time 00:05:20 | Step 6392918 / 1000000001 | TPS 18923.2 | ETA 14:35:07
Time 00:05:30 | Step 6583059 / 1000000001 | TPS 19014.1 | ETA 14:30:46
Time 00:05:40 | Step 6771695 / 1000000001 | TPS 18863.6 | ETA 14:37:33
Time 00:05:50 | Step 6961494 / 1000000001 | TPS 18979.7 | ETA 14:32:00
Time 00:06:00 | Step 7149336 / 1000000001 | TPS 18784.2 | ETA 14:40:55
Time 00:06:10 | Step 7334701 / 1000000001 | TPS 18536 | ETA 14:52:33
Time 00:06:20 | Step 7521855 / 1000000001 | TPS 18715.3 | ETA 14:43:50
Time 00:06:30 | Step 7706985 / 1000000001 | TPS 18512.9 | ETA 14:53:20
Time 00:06:40 | Step 7893601 / 1000000001 | TPS 18661.4 | ETA 14:46:03
Time 00:06:50 | Step 8080877 / 1000000001 | TPS 18727.5 | ETA 14:42:45
Time 00:07:00 | Step 8267633 / 1000000001 | TPS 18675.6 | ETA 14:45:03
Time 00:07:10 | Step 8452770 / 1000000001 | TPS 18513.6 | ETA 14:52:37
Time 00:07:20 | Step 8637499 / 1000000001 | TPS 18472.8 | ETA 14:54:25
Time 00:07:30 | Step 8821143 / 1000000001 | TPS 18364.3 | ETA 14:59:33
Time 00:07:40 | Step 9004557 / 1000000001 | TPS 18341.2 | ETA 15:00:30
Time 00:07:50 | Step 9188150 / 1000000001 | TPS 18359.1 | ETA 14:59:28
Time 00:08:00 | Step 9370413 / 1000000001 | TPS 18226.3 | ETA 15:05:51
Time 00:08:10 | Step 9553438 / 1000000001 | TPS 18302.4 | ETA 15:01:55
Time 00:08:20 | Step 9735177 / 1000000001 | TPS 18173.8 | ETA 15:08:08
Time 00:08:30 | Step 9917545 / 1000000001 | TPS 18236.7 | ETA 15:04:50
Time 00:08:40 | Step 10102680 / 1000000001 | TPS 18513.5 | ETA 14:51:09
Time 00:08:50 | Step 10286562 / 1000000001 | TPS 18388.1 | ETA 14:57:03
Time 00:09:00 | Step 10471315 / 1000000001 | TPS 18475.3 | ETA 14:52:39
Time 00:09:10 | Step 10654541 / 1000000001 | TPS 18322.5 | ETA 14:59:56
Time 00:09:20 | Step 10838686 / 1000000001 | TPS 18414.4 | ETA 14:55:16
Time 00:09:30 | Step 11022643 / 1000000001 | TPS 18395.7 | ETA 14:56:01
Time 00:09:40 | Step 11206728 / 1000000001 | TPS 18408.5 | ETA 14:55:14
Time 00:09:50 | Step 11392224 / 1000000001 | TPS 18549.6 | ETA 14:48:15
Time 00:10:00 | Step 11577022 / 1000000001 | TPS 18479.8 | ETA 14:51:26
Time 00:10:10 | Step 11761913 / 1000000001 | TPS 18489 | ETA 14:50:49
Time 00:10:20 | Step 11945909 / 1000000001 | TPS 18399.4 | ETA 14:55:00
Time 00:10:30 | Step 12127361 / 1000000001 | TPS 18145.2 | ETA 15:07:22
Time 00:10:40 | Step 12310990 / 1000000001 | TPS 18362.9 | ETA 14:56:27
Time 00:10:50 | Step 12493021 / 1000000001 | TPS 18202.9 | ETA 15:04:09
Time 00:11:00 | Step 12679549 / 1000000001 | TPS 18652.7 | ETA 14:42:11
Time 00:11:10 | Step 12865184 / 1000000001 | TPS 18563.5 | ETA 14:46:16
Time 00:11:20 | Step 13047850 / 1000000001 | TPS 18266.5 | ETA 15:00:30
Time 00:11:30 | Step 13230774 / 1000000001 | TPS 18292.3 | ETA 14:59:04
Time 00:11:40 | Step 13414733 / 1000000001 | TPS 18395.9 | ETA 14:53:50
Time 00:11:50 | Step 13598336 / 1000000001 | TPS 18360.3 | ETA 14:55:24
Time 00:12:00 | Step 13782816 / 1000000001 | TPS 18448 | ETA 14:50:59
Time 00:12:10 | Step 13967913 / 1000000001 | TPS 18509.7 | ETA 14:47:51
Time 00:12:20 | Step 14153104 / 1000000001 | TPS 18519 | ETA 14:47:14
Time 00:12:30 | Step 14337890 / 1000000001 | TPS 18478.5 | ETA 14:49:00
Time 00:12:40 | Step 14520768 / 1000000001 | TPS 18287.8 | ETA 14:58:07
Time 00:12:50 | Step 14702992 / 1000000001 | TPS 18222.3 | ETA 15:01:10
Time 00:13:00 | Step 14884650 / 1000000001 | TPS 18165.7 | ETA 15:03:49
Time 00:13:10 | Step 15068778 / 1000000001 | TPS 18412.8 | ETA 14:51:31
Time 00:13:20 | Step 15250532 / 1000000001 | TPS 18175.3 | ETA 15:03:00
Time 00:13:30 | Step 15435587 / 1000000001 | TPS 18505.5 | ETA 14:46:43
Time 00:13:40 | Step 15619465 / 1000000001 | TPS 18387.8 | ETA 14:52:14
Time 00:13:50 | Step 15804028 / 1000000001 | TPS 18456.2 | ETA 14:48:45
Time 00:14:00 | Step 15988673 / 1000000001 | TPS 18464.3 | ETA 14:48:12
Time 00:14:10 | Step 16172539 / 1000000001 | TPS 18386.5 | ETA 14:51:48
Time 00:14:20 | Step 16355198 / 1000000001 | TPS 18265.9 | ETA 14:57:31
Time 00:14:30 | Step 16539264 / 1000000001 | TPS 18406.5 | ETA 14:50:29
Time 00:14:40 | Step 16723621 / 1000000001 | TPS 18435.5 | ETA 14:48:56
Time 00:14:50 | Step 16906859 / 1000000001 | TPS 18323.8 | ETA 14:54:11
Time 00:15:00 | Step 17088294 / 1000000001 | TPS 18143.4 | ETA 15:02:54
Time 00:15:10 | Step 17269488 / 1000000001 | TPS 18119.4 | ETA 15:03:56
Time 00:15:20 | Step 17450066 / 1000000001 | TPS 18057.8 | ETA 15:06:51
Time 00:15:30 | Step 17633212 / 1000000001 | TPS 18314.6 | ETA 14:53:58
Time 00:15:40 | Step 17816929 / 1000000001 | TPS 18371.6 | ETA 14:51:01
Time 00:15:50 | Step 18000619 / 1000000001 | TPS 18368.8 | ETA 14:51:00
Time 00:16:00 | Step 18185881 / 1000000001 | TPS 18526.2 | ETA 14:43:15
Time 00:16:10 | Step 18369405 / 1000000001 | TPS 18352.4 | ETA 14:51:27
Time 00:16:20 | Step 18552484 / 1000000001 | TPS 18307.7 | ETA 14:53:28
Time 00:16:30 | Step 18736675 / 1000000001 | TPS 18419.1 | ETA 14:47:54
Time 00:16:40 | Step 18917876 / 1000000001 | TPS 18120.1 | ETA 15:02:23
Time 00:16:50 | Step 19098507 / 1000000001 | TPS 18063 | ETA 15:05:04
Time 00:17:00 | Step 19280379 / 1000000001 | TPS 18187 | ETA 14:58:44
Time 00:17:10 | Step 19463081 / 1000000001 | TPS 18270.1 | ETA 14:54:29
Time 00:17:20 | Step 19644558 / 1000000001 | TPS 18147.5 | ETA 15:00:21
Time 00:17:30 | Step 19825581 / 1000000001 | TPS 18102.1 | ETA 15:02:26
Time 00:17:40 | Step 20006529 / 1000000001 | TPS 18094.7 | ETA 15:02:39
Time 00:17:50 | Step 20187160 / 1000000001 | TPS 18063 | ETA 15:04:04
Time 00:18:00 | Step 20369920 / 1000000001 | TPS 18276 | ETA 14:53:22
Time 00:18:10 | Step 20553601 / 1000000001 | TPS 18368 | ETA 14:48:43
Time 00:18:20 | Step 20737143 / 1000000001 | TPS 18354.2 | ETA 14:49:13
Time 00:18:30 | Step 20920796 / 1000000001 | TPS 18365.2 | ETA 14:48:31
Time 00:18:40 | Step 21104743 / 1000000001 | TPS 18394.7 | ETA 14:46:56
Time 00:18:50 | Step 21287665 / 1000000001 | TPS 18292.1 | ETA 14:51:44
Time 00:19:00 | Step 21470132 / 1000000001 | TPS 18246.7 | ETA 14:53:47
Time 00:19:10 | Step 21650958 / 1000000001 | TPS 18082.6 | ETA 15:01:44
Time 00:19:20 | Step 21834224 / 1000000001 | TPS 18326.5 | ETA 14:49:34
Time 00:19:30 | Step 22015721 / 1000000001 | TPS 18149.7 | ETA 14:58:04
Time 00:19:40 | Step 22196725 / 1000000001 | TPS 18100.2 | ETA 15:00:21
Time 00:19:50 | Step 22377162 / 1000000001 | TPS 18043.7 | ETA 15:03:00
Time 00:20:00 | Step 22558371 / 1000000001 | TPS 18120.9 | ETA 14:59:00
Time 00:20:10 | Step 22740678 / 1000000001 | TPS 18230.7 | ETA 14:53:25
Time 00:20:20 | Step 22923017 / 1000000001 | TPS 18233.8 | ETA 14:53:05
Time 00:20:30 | Step 23107307 / 1000000001 | TPS 18428.9 | ETA 14:43:28
Time 00:20:40 | Step 23291027 / 1000000001 | TPS 18372 | ETA 14:46:03
Time 00:20:50 | Step 23475129 / 1000000001 | TPS 18410.2 | ETA 14:44:02
Time 00:21:00 | Step 23656968 / 1000000001 | TPS 18183.9 | ETA 14:54:52
Time 00:21:10 | Step 23839057 / 1000000001 | TPS 18208.7 | ETA 14:53:29
Time 00:21:20 | Step 24021053 / 1000000001 | TPS 18199.5 | ETA 14:53:46
Time 00:21:30 | Step 24202984 / 1000000001 | TPS 18193.1 | ETA 14:53:55
Time 00:21:40 | Step 24384946 / 1000000001 | TPS 18196.2 | ETA 14:53:36
Time 00:21:50 | Step 24565016 / 1000000001 | TPS 18007 | ETA 15:02:49
Time 00:22:00 | Step 24748565 / 1000000001 | TPS 18354.8 | ETA 14:45:33
Time 00:22:10 | Step 24932781 / 1000000001 | TPS 18421.6 | ETA 14:42:10
Time 00:22:20 | Step 25116547 / 1000000001 | TPS 18376.6 | ETA 14:44:10
Time 00:22:30 | Step 25299143 / 1000000001 | TPS 18259.6 | ETA 14:49:40
Time 00:22:40 | Step 25480219 / 1000000001 | TPS 18107.5 | ETA 14:56:58
Time 00:22:50 | Step 25662677 / 1000000001 | TPS 18245.8 | ETA 14:50:00
Time 00:23:00 | Step 25843472 / 1000000001 | TPS 18079.5 | ETA 14:58:01
Time 00:23:10 | Step 26023919 / 1000000001 | TPS 18044.7 | ETA 14:59:35
Time 00:23:20 | Step 26204312 / 1000000001 | TPS 18039.3 | ETA 14:59:41
Time 00:23:30 | Step 26385017 / 1000000001 | TPS 18070.3 | ETA 14:57:59
Time 00:23:40 | Step 26567837 / 1000000001 | TPS 18281.9 | ETA 14:47:25
Time 00:23:50 | Step 26748887 / 1000000001 | TPS 18105 | ETA 14:55:55
Time 00:24:00 | Step 26928105 / 1000000001 | TPS 17921.7 | ETA 15:04:55
Time 00:24:10 | Step 27105601 / 1000000001 | TPS 17749.3 | ETA 15:13:33
Time 00:24:20 | Step 27284800 / 1000000001 | TPS 17919.9 | ETA 15:04:41
Time 00:24:30 | Step 27465222 / 1000000001 | TPS 18042.2 | ETA 14:58:23
Time 00:24:40 | Step 27648385 / 1000000001 | TPS 18316.3 | ETA 14:44:46
Time 00:24:50 | Step 27830882 / 1000000001 | TPS 18249.6 | ETA 14:47:50
Time 00:25:00 | Step 28010671 / 1000000001 | TPS 17978.8 | ETA 15:01:03
Time 00:25:10 | Step 28192541 / 1000000001 | TPS 18186.9 | ETA 14:50:34
Time 00:25:20 | Step 28372891 / 1000000001 | TPS 18034.9 | ETA 14:57:54
Time 00:25:30 | Step 28553376 / 1000000001 | TPS 18048.5 | ETA 14:57:04
Time 00:25:40 | Step 28733929 / 1000000001 | TPS 18055.3 | ETA 14:56:34
Time 00:25:50 | Step 28915557 / 1000000001 | TPS 18162.6 | ETA 14:51:06
Time 00:26:00 | Step 29097801 / 1000000001 | TPS 18224.3 | ETA 14:47:55
Time 00:26:10 | Step 29278099 / 1000000001 | TPS 18029.7 | ETA 14:57:20
Time 00:26:20 | Step 29457551 / 1000000001 | TPS 17945.1 | ETA 15:01:24
Time 00:26:30 | Step 29633480 / 1000000001 | TPS 17592.7 | ETA 15:19:17
Time 00:26:40 | Step 29812615 / 1000000001 | TPS 17913.4 | ETA 15:02:39
Time 00:26:50 | Step 29992693 / 1000000001 | TPS 18007.7 | ETA 14:57:46
Time 00:27:00 | Step 30172166 / 1000000001 | TPS 17947.3 | ETA 15:00:37
Time 00:27:10 | Step 30350422 / 1000000001 | TPS 17825.6 | ETA 15:06:36
Time 00:27:20 | Step 30530872 / 1000000001 | TPS 18045 | ETA 14:55:25
Time 00:27:30 | Step 30710909 / 1000000001 | TPS 18003.7 | ETA 14:57:18
Time 00:27:40 | Step 30891301 / 1000000001 | TPS 18039 | ETA 14:55:22
Time 00:27:50 | Step 31072371 / 1000000001 | TPS 18107 | ETA 14:51:51
Time 00:28:00 | Step 31254891 / 1000000001 | TPS 18251.9 | ETA 14:44:36
Time 00:28:10 | Step 31434809 / 1000000001 | TPS 17991.7 | ETA 14:57:14
Time 00:28:20 | Step 31613564 / 1000000001 | TPS 17875.4 | ETA 15:02:54
Time 00:28:30 | Step 31794113 / 1000000001 | TPS 18054.7 | ETA 14:53:46
Time 00:28:40 | Step 31973325 / 1000000001 | TPS 17921.1 | ETA 15:00:15
Time 00:28:50 | Step 32151502 / 1000000001 | TPS 17817.5 | ETA 15:05:20
Time 00:29:00 | Step 32330891 / 1000000001 | TPS 17938.8 | ETA 14:59:02
Time 00:29:10 | Step 32510289 / 1000000001 | TPS 17939.7 | ETA 14:58:49
Time 00:29:20 | Step 32691415 / 1000000001 | TPS 18112.6 | ETA 14:50:05
Time 00:29:30 | Step 32872186 / 1000000001 | TPS 18076.9 | ETA 14:51:40
Time 00:29:40 | Step 33053262 / 1000000001 | TPS 18107.5 | ETA 14:50:00
Time 00:29:50 | Step 33235055 / 1000000001 | TPS 18179.2 | ETA 14:46:19
Time 00:30:00 | Step 33414642 / 1000000001 | TPS 17958.6 | ETA 14:57:02
Time 00:30:10 | Step 33592820 / 1000000001 | TPS 17817.7 | ETA 15:03:58
Time 00:30:20 | Step 33773082 / 1000000001 | TPS 18026.1 | ETA 14:53:21
Time 00:30:30 | Step 33952476 / 1000000001 | TPS 17939.4 | ETA 14:57:30
Time 00:30:40 | Step 34133430 / 1000000001 | TPS 18095.3 | ETA 14:49:36
Time 00:30:50 | Step 34313317 / 1000000001 | TPS 17988.5 | ETA 14:54:43
Time 00:31:00 | Step 34494246 / 1000000001 | TPS 18092.8 | ETA 14:49:23
Time 00:31:10 | Step 34676157 / 1000000001 | TPS 18191 | ETA 14:44:25
Time 00:31:20 | Step 34858252 / 1000000001 | TPS 18209.4 | ETA 14:43:22
Time 00:31:30 | Step 35039527 / 1000000001 | TPS 18127.5 | ETA 14:47:11
Time 00:31:40 | Step 35219116 / 1000000001 | TPS 17958.9 | ETA 14:55:21
Time 00:31:50 | Step 35397284 / 1000000001 | TPS 17816.8 | ETA 15:02:20
Time 00:32:00 | Step 35575140 / 1000000001 | TPS 17785.6 | ETA 15:03:45
Time 00:32:10 | Step 35753458 / 1000000001 | TPS 17831.7 | ETA 15:01:14
Time 00:32:20 | Step 35933400 / 1000000001 | TPS 17994.2 | ETA 14:52:56
Time 00:32:30 | Step 36111386 / 1000000001 | TPS 17798.6 | ETA 15:02:35
Time 00:32:40 | Step 36290567 / 1000000001 | TPS 17918 | ETA 14:56:24
Time 00:32:50 | Step 36469892 / 1000000001 | TPS 17932.5 | ETA 14:55:31
Time 00:33:00 | Step 36649442 / 1000000001 | TPS 17954.9 | ETA 14:54:13
Time 00:33:10 | Step 36830004 / 1000000001 | TPS 18056 | ETA 14:49:03
Time 00:33:20 | Step 37012773 / 1000000001 | TPS 18276.9 | ETA 14:38:08
Time 00:33:30 | Step 37190973 / 1000000001 | TPS 17820 | ETA 15:00:29
Time 00:33:40 | Step 37372367 / 1000000001 | TPS 18139.2 | ETA 14:44:28
Time 00:33:50 | Step 37550976 / 1000000001 | TPS 17860.8 | ETA 14:58:06
Time 00:34:00 | Step 37730487 / 1000000001 | TPS 17951 | ETA 14:53:25
Time 00:34:10 | Step 37909885 / 1000000001 | TPS 17939.7 | ETA 14:53:49
Time 00:34:20 | Step 38087380 / 1000000001 | TPS 17749.5 | ETA 15:03:13
Time 00:34:30 | Step 38265132 / 1000000001 | TPS 17775 | ETA 15:01:45
Time 00:34:40 | Step 38441374 / 1000000001 | TPS 17624.2 | ETA 15:09:19
Time 00:34:50 | Step 38620437 / 1000000001 | TPS 17906.3 | ETA 14:54:49
Time 00:35:00 | Step 38798946 / 1000000001 | TPS 17850.8 | ETA 14:57:26
Time 00:35:10 | Step 38979018 / 1000000001 | TPS 18007.1 | ETA 14:49:28
Time 00:35:20 | Step 39159365 / 1000000001 | TPS 18034.7 | ETA 14:47:57
Time 00:35:30 | Step 39339026 / 1000000001 | TPS 17966.1 | ETA 14:51:10
Time 00:35:40 | Step 39518654 / 1000000001 | TPS 17962.8 | ETA 14:51:10
Time 00:35:50 | Step 39702046 / 1000000001 | TPS 18339.2 | ETA 14:32:43
Time 00:36:00 | Step 39884254 / 1000000001 | TPS 18220.8 | ETA 14:38:13
Time 00:36:10 | Step 40064917 / 1000000001 | TPS 18066.2 | ETA 14:45:34
Time 00:36:20 | Step 40245069 / 1000000001 | TPS 18015.1 | ETA 14:47:54
Time 00:36:30 | Step 40424962 / 1000000001 | TPS 17989.2 | ETA 14:49:01
Time 00:36:40 | Step 40605027 / 1000000001 | TPS 18006.4 | ETA 14:48:00
Time 00:36:50 | Step 40783914 / 1000000001 | TPS 17888.6 | ETA 14:53:41
Time 00:37:00 | Step 40964639 / 1000000001 | TPS 18072.3 | ETA 14:44:26
Time 00:37:10 | Step 41143664 / 1000000001 | TPS 17902.4 | ETA 14:52:40
Time 00:37:20 | Step 41323848 / 1000000001 | TPS 18018.4 | ETA 14:46:45
Time 00:37:30 | Step 41504041 / 1000000001 | TPS 18019.1 | ETA 14:46:33
Time 00:37:40 | Step 41684167 / 1000000001 | TPS 18012.6 | ETA 14:46:42
Time 00:37:50 | Step 41864672 / 1000000001 | TPS 18050.5 | ETA 14:44:40
Time 00:38:00 | Step 42044354 / 1000000001 | TPS 17968.1 | ETA 14:48:34
Time 00:38:10 | Step 42223970 / 1000000001 | TPS 17961.4 | ETA 14:48:44
Time 00:38:20 | Step 42406868 / 1000000001 | TPS 18289.8 | ETA 14:32:36
Time 00:38:30 | Step 42588224 / 1000000001 | TPS 18135.6 | ETA 14:39:51
Time 00:38:40 | Step 42769626 / 1000000001 | TPS 18140.2 | ETA 14:39:28
Time 00:38:50 | Step 42950213 / 1000000001 | TPS 18058.6 | ETA 14:43:16
Time 00:39:00 | Step 43129494 / 1000000001 | TPS 17928 | ETA 14:49:32
Time 00:39:10 | Step 43306233 / 1000000001 | TPS 17673.9 | ETA 15:02:10
Time 00:39:20 | Step 43485310 / 1000000001 | TPS 17907.6 | ETA 14:50:13
Time 00:39:30 | Step 43663281 / 1000000001 | TPS 17797 | ETA 14:55:35
Time 00:39:40 | Step 43840809 / 1000000001 | TPS 17752.7 | ETA 14:57:39
Time 00:39:50 | Step 44020715 / 1000000001 | TPS 17990.6 | ETA 14:45:37
Time 00:40:00 | Step 44201593 / 1000000001 | TPS 18087.7 | ETA 14:40:42
Time 00:40:10 | Step 44379582 / 1000000001 | TPS 17798.9 | ETA 14:54:49
Time 00:40:20 | Step 44560228 / 1000000001 | TPS 18064.6 | ETA 14:41:30
Time 00:40:30 | Step 44741283 / 1000000001 | TPS 18105.5 | ETA 14:39:20
Time 00:40:40 | Step 44923775 / 1000000001 | TPS 18249.2 | ETA 14:32:15
Time 00:40:50 | Step 45104141 / 1000000001 | TPS 18036.6 | ETA 14:42:22
Time 00:41:00 | Step 45285367 / 1000000001 | TPS 18122.6 | ETA 14:38:00
Time 00:41:10 | Step 45466992 / 1000000001 | TPS 18162.5 | ETA 14:35:55
Time 00:41:20 | Step 45649072 / 1000000001 | TPS 18208 | ETA 14:33:33
Time 00:41:30 | Step 45830733 / 1000000001 | TPS 18166 | ETA 14:35:25
Time 00:41:40 | Step 46011612 / 1000000001 | TPS 18087.9 | ETA 14:39:01
Time 00:41:50 | Step 46193368 / 1000000001 | TPS 18175.6 | ETA 14:34:37
Time 00:42:00 | Step 46373968 / 1000000001 | TPS 18060 | ETA 14:40:03
Time 00:42:10 | Step 46553376 / 1000000001 | TPS 17940.8 | ETA 14:45:44
Time 00:42:20 | Step 46733310 / 1000000001 | TPS 17993.4 | ETA 14:42:58
Time 00:42:30 | Step 46912386 / 1000000001 | TPS 17907.5 | ETA 14:47:02
Time 00:42:40 | Step 47092642 / 1000000001 | TPS 18025.5 | ETA 14:41:04
Time 00:42:50 | Step 47274991 / 1000000001 | TPS 18234.9 | ETA 14:30:47
Time 00:43:00 | Step 47454485 / 1000000001 | TPS 17949.2 | ETA 14:44:28
Time 00:43:10 | Step 47635359 / 1000000001 | TPS 18087.3 | ETA 14:37:33
Time 00:43:20 | Step 47816078 / 1000000001 | TPS 18071.9 | ETA 14:38:08
Time 00:43:30 | Step 47995497 / 1000000001 | TPS 17941.8 | ETA 14:44:20
Time 00:43:40 | Step 48175312 / 1000000001 | TPS 17981.3 | ETA 14:42:14
Time 00:43:50 | Step 48356287 / 1000000001 | TPS 18097.5 | ETA 14:36:24
Time 00:44:00 | Step 48537449 / 1000000001 | TPS 18116.2 | ETA 14:35:20
Time 00:44:10 | Step 48715932 / 1000000001 | TPS 17848.1 | ETA 14:48:18
Time 00:44:20 | Step 48893243 / 1000000001 | TPS 17731 | ETA 14:54:00
Time 00:44:30 | Step 49071557 / 1000000001 | TPS 17831.3 | ETA 14:48:49
Time 00:44:40 | Step 49250446 / 1000000001 | TPS 17888.8 | ETA 14:45:47
Time 00:44:50 | Step 49427627 / 1000000001 | TPS 17718 | ETA 14:54:10
Time 00:45:00 | Step 49605388 / 1000000001 | TPS 17776.1 | ETA 14:51:04
Time 00:45:10 | Step 49785871 / 1000000001 | TPS 18048.2 | ETA 14:37:28
Time 00:45:20 | Step 49967109 / 1000000001 | TPS 18123.7 | ETA 14:33:39
Time 00:45:30 | Step 50149211 / 1000000001 | TPS 18210.1 | ETA 14:29:20
Time 00:45:40 | Step 50328657 / 1000000001 | TPS 17944.5 | ETA 14:42:02
Time 00:45:50 | Step 50506138 / 1000000001 | TPS 17748 | ETA 14:51:38
Time 00:46:00 | Step 50686611 / 1000000001 | TPS 18047.2 | ETA 14:36:41
Time 00:46:10 | Step 50868259 / 1000000001 | TPS 18164.8 | ETA 14:30:51
Time 00:46:20 | Step 51050782 / 1000000001 | TPS 18252.2 | ETA 14:26:31
Time 00:46:30 | Step 51231572 / 1000000001 | TPS 18078.9 | ETA 14:34:39
Time 00:46:40 | Step 51411383 / 1000000001 | TPS 17981.1 | ETA 14:39:14
Time 00:46:50 | Step 51591721 / 1000000001 | TPS 18033.7 | ETA 14:36:30
Time 00:47:00 | Step 51770513 / 1000000001 | TPS 17879.1 | ETA 14:43:55
Time 00:47:10 | Step 51951801 / 1000000001 | TPS 18128.8 | ETA 14:31:35
Time 00:47:20 | Step 52133654 / 1000000001 | TPS 18185.3 | ETA 14:28:42
Time 00:47:30 | Step 52313919 / 1000000001 | TPS 18026.5 | ETA 14:36:11
Time 00:47:40 | Step 52491756 / 1000000001 | TPS 17783.7 | ETA 14:47:59
Time 00:47:50 | Step 52670445 / 1000000001 | TPS 17868.9 | ETA 14:43:35
Time 00:48:00 | Step 52852985 / 1000000001 | TPS 18253.8 | ETA 14:24:47
Time 00:48:10 | Step 53033293 / 1000000001 | TPS 18030.8 | ETA 14:35:19
Time 00:48:20 | Step 53212555 / 1000000001 | TPS 17926.2 | ETA 14:40:15
Time 00:48:30 | Step 53392955 / 1000000001 | TPS 18039.9 | ETA 14:34:32
Time 00:48:40 | Step 53573229 / 1000000001 | TPS 18027.4 | ETA 14:34:59
Time 00:48:50 | Step 53751318 / 1000000001 | TPS 17808.9 | ETA 14:45:33
Time 00:49:00 | Step 53928533 / 1000000001 | TPS 17721.3 | ETA 14:49:46
Time 00:49:10 | Step 54105736 / 1000000001 | TPS 17720.2 | ETA 14:49:39
Time 00:49:20 | Step 54284820 / 1000000001 | TPS 17908.4 | ETA 14:40:08
Time 00:49:30 | Step 54465531 / 1000000001 | TPS 18071.1 | ETA 14:32:03
Time 00:49:40 | Step 54647240 / 1000000001 | TPS 18170.8 | ETA 14:27:05
Time 00:49:50 | Step 54828280 / 1000000001 | TPS 18104 | ETA 14:30:07
Time 00:50:00 | Step 55007414 / 1000000001 | TPS 17913.4 | ETA 14:39:13
Time 00:50:10 | Step 55188326 / 1000000001 | TPS 18091.1 | ETA 14:30:25
Time 00:50:20 | Step 55368152 / 1000000001 | TPS 17982.5 | ETA 14:35:30
Time 00:50:30 | Step 55548109 / 1000000001 | TPS 17995.7 | ETA 14:34:42
Time 00:50:40 | Step 55727962 / 1000000001 | TPS 17985.2 | ETA 14:35:02
Time 00:50:50 | Step 55906693 / 1000000001 | TPS 17873 | ETA 14:40:22
Time 00:51:00 | Step 56084379 / 1000000001 | TPS 17768.5 | ETA 14:45:22
Time 00:51:10 | Step 56261200 / 1000000001 | TPS 17682.1 | ETA 14:49:32
Time 00:51:20 | Step 56437663 / 1000000001 | TPS 17646.3 | ETA 14:51:10
Time 00:51:30 | Step 56617192 / 1000000001 | TPS 17952.9 | ETA 14:35:47
Time 00:51:40 | Step 56798731 / 1000000001 | TPS 18153.8 | ETA 14:25:56
Time 00:51:50 | Step 56978079 / 1000000001 | TPS 17934.7 | ETA 14:36:20
Time 00:52:00 | Step 57157867 / 1000000001 | TPS 17978.8 | ETA 14:34:01
Time 00:52:10 | Step 57337565 / 1000000001 | TPS 17969.7 | ETA 14:34:18
Time 00:52:20 | Step 57517540 / 1000000001 | TPS 17997.5 | ETA 14:32:47
Time 00:52:30 | Step 57696971 / 1000000001 | TPS 17943.1 | ETA 14:35:16
Time 00:52:40 | Step 57877124 / 1000000001 | TPS 18015.3 | ETA 14:31:35
Time 00:52:50 | Step 58056424 / 1000000001 | TPS 17930 | ETA 14:35:34
Time 00:53:00 | Step 58234080 / 1000000001 | TPS 17765.5 | ETA 14:43:30
Time 00:53:10 | Step 58411541 / 1000000001 | TPS 17745.9 | ETA 14:44:19
Time 00:53:20 | Step 58590089 / 1000000001 | TPS 17854.8 | ETA 14:38:46
Time 00:53:30 | Step 58770807 / 1000000001 | TPS 18071.6 | ETA 14:28:03
Time 00:53:40 | Step 58951422 / 1000000001 | TPS 18061.4 | ETA 14:28:22
Time 00:53:50 | Step 59130713 / 1000000001 | TPS 17929.1 | ETA 14:34:37
Time 00:54:00 | Step 59311418 / 1000000001 | TPS 18070.5 | ETA 14:27:36
Time 00:54:10 | Step 59493001 / 1000000001 | TPS 18158.2 | ETA 14:23:15
Time 00:54:20 | Step 59674421 / 1000000001 | TPS 18142 | ETA 14:23:51
Time 00:54:30 | Step 59855916 / 1000000001 | TPS 18149.4 | ETA 14:23:20
Time 00:54:40 | Step 60037052 / 1000000001 | TPS 18113.4 | ETA 14:24:53
Time 00:54:50 | Step 60217561 / 1000000001 | TPS 18050.9 | ETA 14:27:42
Time 00:55:00 | Step 60398368 / 1000000001 | TPS 18080.7 | ETA 14:26:07
Time 00:55:10 | Step 60580163 / 1000000001 | TPS 18179.5 | ETA 14:21:14
Time 00:55:20 | Step 60761284 / 1000000001 | TPS 18112 | ETA 14:24:17
Time 00:55:30 | Step 60942757 / 1000000001 | TPS 18147.2 | ETA 14:22:26
Time 00:55:40 | Step 61121562 / 1000000001 | TPS 17880.4 | ETA 14:35:08
Time 00:55:50 | Step 61300326 / 1000000001 | TPS 17876.4 | ETA 14:35:10
Time 00:56:00 | Step 61481781 / 1000000001 | TPS 18145.4 | ETA 14:22:02
Time 00:56:10 | Step 61661977 / 1000000001 | TPS 18019.5 | ETA 14:27:53
Time 00:56:20 | Step 61842522 / 1000000001 | TPS 18054.5 | ETA 14:26:02
Time 00:56:30 | Step 62022969 / 1000000001 | TPS 18044.7 | ETA 14:26:20
Time 00:56:40 | Step 62202620 / 1000000001 | TPS 17965.1 | ETA 14:30:01
Time 00:56:50 | Step 62382901 / 1000000001 | TPS 18027.6 | ETA 14:26:50
Time 00:57:00 | Step 62563677 / 1000000001 | TPS 18077.5 | ETA 14:24:16
Time 00:57:10 | Step 62743975 / 1000000001 | TPS 18029.7 | ETA 14:26:23
Time 00:57:20 | Step 62923898 / 1000000001 | TPS 17992.3 | ETA 14:28:02
Time 00:57:30 | Step 63103849 / 1000000001 | TPS 17995 | ETA 14:27:44
Time 00:57:40 | Step 63281846 / 1000000001 | TPS 17799.7 | ETA 14:37:05
Time 00:57:50 | Step 63461390 / 1000000001 | TPS 17954.3 | ETA 14:29:22
Time 00:58:00 | Step 63640571 / 1000000001 | TPS 17918.1 | ETA 14:30:57
Time 00:58:10 | Step 63819667 / 1000000001 | TPS 17909.5 | ETA 14:31:12
Time 00:58:20 | Step 63999950 / 1000000001 | TPS 18028.2 | ETA 14:25:18
Time 00:58:30 | Step 64181627 / 1000000001 | TPS 18167.7 | ETA 14:18:30
Time 00:58:40 | Step 64361280 / 1000000001 | TPS 17965.3 | ETA 14:28:00
Time 00:58:50 | Step 64539085 / 1000000001 | TPS 17780.4 | ETA 14:36:51
Time 00:59:00 | Step 64718712 / 1000000001 | TPS 17962.7 | ETA 14:27:48
Time 00:59:10 | Step 64900438 / 1000000001 | TPS 18172.5 | ETA 14:17:36
Time 00:59:20 | Step 65082626 / 1000000001 | TPS 18218.7 | ETA 14:15:16
Time 00:59:30 | Step 65264434 / 1000000001 | TPS 18180.7 | ETA 14:16:53
Time 00:59:40 | Step 65444928 / 1000000001 | TPS 18049.4 | ETA 14:22:57
Time 00:59:50 | Step 65625327 / 1000000001 | TPS 18039.9 | ETA 14:23:14
Time 01:00:00 | Step 65805225 / 1000000001 | TPS 17989.7 | ETA 14:25:29
Time 01:00:10 | Step 65984077 / 1000000001 | TPS 17885 | ETA 14:30:23
Time 01:00:20 | Step 66162937 / 1000000001 | TPS 17886 | ETA 14:30:10
Time 01:00:30 | Step 66343567 / 1000000001 | TPS 18062.9 | ETA 14:21:29
Time 01:00:40 | Step 66524898 / 1000000001 | TPS 18133.1 | ETA 14:17:59
Time 01:00:50 | Step 66704861 / 1000000001 | TPS 17996.2 | ETA 14:24:20
Time 01:01:00 | Step 66885609 / 1000000001 | TPS 18074.8 | ETA 14:20:25
Time 01:01:10 | Step 67067758 / 1000000001 | TPS 18214.8 | ETA 14:13:38
Time 01:01:20 | Step 67249621 / 1000000001 | TPS 18186.3 | ETA 14:14:48
Time 01:01:30 | Step 67429608 / 1000000001 | TPS 17998.7 | ETA 14:23:33
Time 01:01:40 | Step 67609146 / 1000000001 | TPS 17953.7 | ETA 14:25:32
Time 01:01:50 | Step 67788399 / 1000000001 | TPS 17925.2 | ETA 14:26:45
Time 01:02:00 | Step 67966914 / 1000000001 | TPS 17851.4 | ETA 14:30:10
Time 01:02:10 | Step 68146381 / 1000000001 | TPS 17946.7 | ETA 14:25:23
Time 01:02:20 | Step 68326476 / 1000000001 | TPS 18009.3 | ETA 14:22:12
Time 01:02:30 | Step 68506481 / 1000000001 | TPS 18000.4 | ETA 14:22:28
Time 01:02:40 | Step 68688365 / 1000000001 | TPS 18188.4 | ETA 14:13:23
Time 01:02:50 | Step 68869842 / 1000000001 | TPS 18147.6 | ETA 14:15:08
Time 01:03:00 | Step 69050802 / 1000000001 | TPS 18096 | ETA 14:17:25
Time 01:03:10 | Step 69232666 / 1000000001 | TPS 18186.4 | ETA 14:12:59
Time 01:03:20 | Step 69413537 / 1000000001 | TPS 18086.9 | ETA 14:17:30
Time 01:03:30 | Step 69596936 / 1000000001 | TPS 18339.9 | ETA 14:05:31
Time 01:03:40 | Step 69779520 / 1000000001 | TPS 18258.4 | ETA 14:09:07
Time 01:03:50 | Step 69962506 / 1000000001 | TPS 18298.4 | ETA 14:07:06
Time 01:04:00 | Step 70144750 / 1000000001 | TPS 18224.2 | ETA 14:10:23
Time 01:04:10 | Step 70326133 / 1000000001 | TPS 18138.2 | ETA 14:14:15
Time 01:04:20 | Step 70507259 / 1000000001 | TPS 18112.5 | ETA 14:15:17
Time 01:04:30 | Step 70688569 / 1000000001 | TPS 18131 | ETA 14:14:15
Time 01:04:40 | Step 70869419 / 1000000001 | TPS 18084.9 | ETA 14:16:15
Time 01:04:50 | Step 71049619 / 1000000001 | TPS 18019.9 | ETA 14:19:11
Time 01:05:00 | Step 71231401 / 1000000001 | TPS 18177.9 | ETA 14:11:33
Time 01:05:10 | Step 71413106 / 1000000001 | TPS 18170.4 | ETA 14:11:44
Time 01:05:20 | Step 71594041 / 1000000001 | TPS 18093.4 | ETA 14:15:11
Time 01:05:30 | Step 71775566 / 1000000001 | TPS 18152.5 | ETA 14:12:14
Time 01:05:40 | Step 71956977 / 1000000001 | TPS 18141.1 | ETA 14:12:36
Time 01:05:50 | Step 72136328 / 1000000001 | TPS 17935.1 | ETA 14:22:14
Time 01:06:00 | Step 72316619 / 1000000001 | TPS 18029.1 | ETA 14:17:34
Time 01:06:10 | Step 72497039 / 1000000001 | TPS 18041.9 | ETA 14:16:48
Time 01:06:20 | Step 72676065 / 1000000001 | TPS 17902.6 | ETA 14:23:18
Time 01:06:30 | Step 72855940 / 1000000001 | TPS 17987.4 | ETA 14:19:04
Time 01:06:40 | Step 73036517 / 1000000001 | TPS 18057.6 | ETA 14:15:33
Time 01:06:50 | Step 73216903 / 1000000001 | TPS 18038.5 | ETA 14:16:17
Time 01:07:00 | Step 73397486 / 1000000001 | TPS 18058.2 | ETA 14:15:11
Time 01:07:10 | Step 73577412 / 1000000001 | TPS 17992.6 | ETA 14:18:09
Time 01:07:20 | Step 73758094 / 1000000001 | TPS 18068.1 | ETA 14:14:23
Time 01:07:30 | Step 73939156 / 1000000001 | TPS 18106.1 | ETA 14:12:26
Time 01:07:40 | Step 74121012 / 1000000001 | TPS 18185.6 | ETA 14:08:32
Time 01:07:50 | Step 74301896 / 1000000001 | TPS 18088.4 | ETA 14:12:56
Time 01:08:00 | Step 74482243 / 1000000001 | TPS 18034.7 | ETA 14:15:18
Time 01:08:10 | Step 74662422 / 1000000001 | TPS 18017.8 | ETA 14:15:56
Time 01:08:20 | Step 74841741 / 1000000001 | TPS 17931.9 | ETA 14:19:52
Time 01:08:30 | Step 75022605 / 1000000001 | TPS 18086.4 | ETA 14:12:22
Time 01:08:40 | Step 75201449 / 1000000001 | TPS 17884.2 | ETA 14:21:50
Time 01:08:50 | Step 75381727 / 1000000001 | TPS 18027.8 | ETA 14:14:48
Time 01:09:00 | Step 75561830 / 1000000001 | TPS 18010.3 | ETA 14:15:28
Time 01:09:10 | Step 75742128 / 1000000001 | TPS 18029.7 | ETA 14:14:22
Time 01:09:20 | Step 75922747 / 1000000001 | TPS 18061.9 | ETA 14:12:41
Time 01:09:30 | Step 76101986 / 1000000001 | TPS 17923.8 | ETA 14:19:05
Time 01:09:40 | Step 76280617 / 1000000001 | TPS 17863 | ETA 14:21:51
Time 01:09:50 | Step 76457861 / 1000000001 | TPS 17724.4 | ETA 14:28:25
Time 01:10:00 | Step 76638319 / 1000000001 | TPS 18045.7 | ETA 14:12:47
Time 01:10:10 | Step 76819751 / 1000000001 | TPS 18143.1 | ETA 14:08:03
Time 01:10:20 | Step 77000172 / 1000000001 | TPS 18042 | ETA 14:12:38
Time 01:10:30 | Step 77180385 / 1000000001 | TPS 18021.2 | ETA 14:13:27
Time 01:10:40 | Step 77361584 / 1000000001 | TPS 18119.7 | ETA 14:08:39
Time 01:10:50 | Step 77540198 / 1000000001 | TPS 17861.3 | ETA 14:20:45
Time 01:11:00 | Step 77719057 / 1000000001 | TPS 17885.7 | ETA 14:19:25
Time 01:11:10 | Step 77899738 / 1000000001 | TPS 18067.9 | ETA 14:10:35
Time 01:11:20 | Step 78078868 / 1000000001 | TPS 17913 | ETA 14:17:46
Time 01:11:30 | Step 78259442 / 1000000001 | TPS 18057.3 | ETA 14:10:45
Time 01:11:40 | Step 78439191 / 1000000001 | TPS 17974.9 | ETA 14:14:29
Time 01:11:50 | Step 78617263 / 1000000001 | TPS 17807.1 | ETA 14:22:22
Time 01:12:00 | Step 78798611 / 1000000001 | TPS 18134.8 | ETA 14:06:37
Time 01:12:10 | Step 78981010 / 1000000001 | TPS 18239.8 | ETA 14:01:34
Time 01:12:20 | Step 79162650 / 1000000001 | TPS 18163.9 | ETA 14:04:55
Time 01:12:30 | Step 79343460 / 1000000001 | TPS 18081 | ETA 14:08:38
Time 01:12:40 | Step 79525262 / 1000000001 | TPS 18179.9 | ETA 14:03:51
Time 01:12:50 | Step 79706478 / 1000000001 | TPS 18121.6 | ETA 14:06:24
Time 01:13:00 | Step 79887366 / 1000000001 | TPS 18088.7 | ETA 14:07:46
Time 01:13:10 | Step 80067130 / 1000000001 | TPS 17976.4 | ETA 14:12:54
Time 01:13:20 | Step 80247334 / 1000000001 | TPS 18020.4 | ETA 14:10:39
Time 01:13:30 | Step 80425997 / 1000000001 | TPS 17866.3 | ETA 14:17:49
Time 01:13:40 | Step 80609696 / 1000000001 | TPS 18369.8 | ETA 13:54:08
Time 01:13:50 | Step 80792410 / 1000000001 | TPS 18271.4 | ETA 13:58:28
Time 01:14:00 | Step 80974801 / 1000000001 | TPS 18239.1 | ETA 13:59:47
Time 01:14:10 | Step 81157330 / 1000000001 | TPS 18252.8 | ETA 13:58:59
Time 01:14:20 | Step 81338035 / 1000000001 | TPS 18070.4 | ETA 14:07:17
Time 01:14:30 | Step 81518419 / 1000000001 | TPS 18038.4 | ETA 14:08:38
Time 01:14:40 | Step 81698608 / 1000000001 | TPS 18018.9 | ETA 14:09:23
Time 01:14:50 | Step 81878871 / 1000000001 | TPS 18026.3 | ETA 14:08:52
Time 01:15:00 | Step 82058733 / 1000000001 | TPS 17986.2 | ETA 14:10:35
Time 01:15:10 | Step 82240261 / 1000000001 | TPS 18152.7 | ETA 14:02:37
Time 01:15:20 | Step 82418429 / 1000000001 | TPS 17816.8 | ETA 14:18:20
Time 01:15:30 | Step 82599243 / 1000000001 | TPS 18081.3 | ETA 14:05:37
Time 01:15:40 | Step 82778173 / 1000000001 | TPS 17892.9 | ETA 14:14:21
Time 01:15:50 | Step 82957670 / 1000000001 | TPS 17949.7 | ETA 14:11:29
Time 01:16:00 | Step 83136964 / 1000000001 | TPS 17929.2 | ETA 14:12:18
Time 01:16:10 | Step 83318768 / 1000000001 | TPS 18180.3 | ETA 14:00:21
Time 01:16:20 | Step 83500245 / 1000000001 | TPS 18147.7 | ETA 14:01:42
Time 01:16:30 | Step 83682152 / 1000000001 | TPS 18190.6 | ETA 13:59:33
Time 01:16:40 | Step 83863070 / 1000000001 | TPS 18091.8 | ETA 14:03:58
Time 01:16:50 | Step 84045039 / 1000000001 | TPS 18196.8 | ETA 13:58:55
Time 01:17:00 | Step 84228001 / 1000000001 | TPS 18295.8 | ETA 13:54:13
Time 01:17:10 | Step 84410186 / 1000000001 | TPS 18218.5 | ETA 13:57:36
Time 01:17:20 | Step 84591720 / 1000000001 | TPS 18153.4 | ETA 14:00:26
Time 01:17:30 | Step 84772805 / 1000000001 | TPS 18108.5 | ETA 14:02:21
Time 01:17:40 | Step 84953710 / 1000000001 | TPS 18090.5 | ETA 14:03:01
Time 01:17:50 | Step 85133386 / 1000000001 | TPS 17967.5 | ETA 14:08:37
Time 01:18:00 | Step 85315161 / 1000000001 | TPS 18177.5 | ETA 13:58:39
Time 01:18:10 | Step 85497361 / 1000000001 | TPS 18219.9 | ETA 13:56:32
Time 01:18:20 | Step 85679707 / 1000000001 | TPS 18234.5 | ETA 13:55:42
Time 01:18:30 | Step 85861720 / 1000000001 | TPS 18201.3 | ETA 13:57:03
Time 01:18:40 | Step 86045412 / 1000000001 | TPS 18369.1 | ETA 13:49:14
Time 01:18:50 | Step 86228511 / 1000000001 | TPS 18309.8 | ETA 13:51:46
Time 01:19:00 | Step 86409012 / 1000000001 | TPS 18050.1 | ETA 14:03:34
Time 01:19:10 | Step 86589601 / 1000000001 | TPS 18058.6 | ETA 14:03:00
Time 01:19:20 | Step 86769971 / 1000000001 | TPS 18036.9 | ETA 14:03:51
Time 01:19:30 | Step 86951153 / 1000000001 | TPS 18118.2 | ETA 13:59:54
Time 01:19:40 | Step 87132604 / 1000000001 | TPS 18145 | ETA 13:58:29
Time 01:19:50 | Step 87312421 / 1000000001 | TPS 17981.5 | ETA 14:05:57
Time 01:20:00 | Step 87492317 / 1000000001 | TPS 17989.4 | ETA 14:05:24
Time 01:20:10 | Step 87672936 / 1000000001 | TPS 18061.8 | ETA 14:01:51
Time 01:20:20 | Step 87853826 / 1000000001 | TPS 18088.9 | ETA 14:00:25
Time 01:20:30 | Step 88036896 / 1000000001 | TPS 18307 | ETA 13:50:15
Time 01:20:40 | Step 88219107 / 1000000001 | TPS 18221.1 | ETA 13:53:59
Time 01:20:50 | Step 88399797 / 1000000001 | TPS 18068.8 | ETA 14:00:51
Time 01:21:00 | Step 88580787 / 1000000001 | TPS 18098.9 | ETA 13:59:17
Time 01:21:10 | Step 88761709 / 1000000001 | TPS 18092.2 | ETA 13:59:26
Time 01:21:20 | Step 88941044 / 1000000001 | TPS 17933.5 | ETA 14:06:42
Time 01:21:30 | Step 89119669 / 1000000001 | TPS 17862.5 | ETA 14:09:54
Time 01:21:40 | Step 89298079 / 1000000001 | TPS 17841 | ETA 14:10:45
Time 01:21:50 | Step 89476149 / 1000000001 | TPS 17807 | ETA 14:12:13
Time 01:22:00 | Step 89653187 / 1000000001 | TPS 17703.7 | ETA 14:17:01
Time 01:22:10 | Step 89830176 / 1000000001 | TPS 17698.7 | ETA 14:17:05
Time 01:22:20 | Step 90007885 / 1000000001 | TPS 17770.8 | ETA 14:13:27
Time 01:22:30 | Step 90185398 / 1000000001 | TPS 17751.3 | ETA 14:14:13
Time 01:22:40 | Step 90366429 / 1000000001 | TPS 18103.1 | ETA 13:57:27
Time 01:22:50 | Step 90547012 / 1000000001 | TPS 18058.3 | ETA 13:59:22
Time 01:23:00 | Step 90724893 / 1000000001 | TPS 17788 | ETA 14:11:57
Time 01:23:10 | Step 90904372 / 1000000001 | TPS 17947.9 | ETA 14:04:11
Time 01:23:20 | Step 91083091 / 1000000001 | TPS 17871.7 | ETA 14:07:37
Time 01:23:30 | Step 91262910 / 1000000001 | TPS 17981.9 | ETA 14:02:16
Time 01:23:40 | Step 91444329 / 1000000001 | TPS 18141.9 | ETA 13:54:40
Time 01:23:50 | Step 91625570 / 1000000001 | TPS 18124 | ETA 13:55:19
Time 01:24:00 | Step 91805376 / 1000000001 | TPS 17980.5 | ETA 14:01:49
Time 01:24:10 | Step 91984193 / 1000000001 | TPS 17881.5 | ETA 14:06:19
Time 01:24:20 | Step 92164638 / 1000000001 | TPS 18044.4 | ETA 13:58:31
Time 01:24:30 | Step 92345096 / 1000000001 | TPS 18045.8 | ETA 13:58:17
Time 01:24:40 | Step 92524221 / 1000000001 | TPS 17912.5 | ETA 14:04:21
Time 01:24:50 | Step 92702257 / 1000000001 | TPS 17803.5 | ETA 14:09:21
Time 01:25:00 | Step 92883382 / 1000000001 | TPS 18112.5 | ETA 13:54:42
Time 01:25:10 | Step 93064711 / 1000000001 | TPS 18132.9 | ETA 13:53:36
Time 01:25:20 | Step 93243790 / 1000000001 | TPS 17907.9 | ETA 14:03:54
Time 01:25:30 | Step 93422821 / 1000000001 | TPS 17902.9 | ETA 14:03:58
Time 01:25:40 | Step 93604313 / 1000000001 | TPS 18149.1 | ETA 13:52:21
Time 01:25:50 | Step 93787636 / 1000000001 | TPS 18332.2 | ETA 13:43:52
Time 01:26:00 | Step 93970386 / 1000000001 | TPS 18274.9 | ETA 13:46:17
Time 01:26:10 | Step 94152065 / 1000000001 | TPS 18167.9 | ETA 13:50:59
Time 01:26:20 | Step 94332601 / 1000000001 | TPS 18053.5 | ETA 13:56:05
Time 01:26:30 | Step 94510036 / 1000000001 | TPS 17743.4 | ETA 14:10:32
Time 01:26:40 | Step 94690002 / 1000000001 | TPS 17996.5 | ETA 13:58:24
Time 01:26:50 | Step 94869923 / 1000000001 | TPS 17992 | ETA 13:58:27
Time 01:27:00 | Step 95050798 / 1000000001 | TPS 18087.4 | ETA 13:53:51
Time 01:27:10 | Step 95230817 / 1000000001 | TPS 18001.9 | ETA 13:57:39
Time 01:27:20 | Step 95412637 / 1000000001 | TPS 18182 | ETA 13:49:11
Time 01:27:30 | Step 95594389 / 1000000001 | TPS 18175.2 | ETA 13:49:20
Time 01:27:40 | Step 95776905 / 1000000001 | TPS 18251.5 | ETA 13:45:42
Time 01:27:50 | Step 95956090 / 1000000001 | TPS 17918.5 | ETA 14:00:53
Time 01:28:00 | Step 96135577 / 1000000001 | TPS 17948.6 | ETA 13:59:18
Time 01:28:10 | Step 96315462 / 1000000001 | TPS 17988.5 | ETA 13:57:16
Time 01:28:20 | Step 96495610 / 1000000001 | TPS 18014.7 | ETA 13:55:53
Time 01:28:30 | Step 96675741 / 1000000001 | TPS 18013 | ETA 13:55:48
Time 01:28:40 | Step 96856410 / 1000000001 | TPS 18066.8 | ETA 13:53:09
Time 01:28:50 | Step 97037434 / 1000000001 | TPS 18102.4 | ETA 13:51:20
Time 01:29:00 | Step 97219953 / 1000000001 | TPS 18251.9 | ETA 13:44:22
Time 01:29:10 | Step 97402222 / 1000000001 | TPS 18226.8 | ETA 13:45:20
Time 01:29:20 | Step 97584491 / 1000000001 | TPS 18226.9 | ETA 13:45:10
Time 01:29:30 | Step 97767525 / 1000000001 | TPS 18303.4 | ETA 13:41:33
Time 01:29:40 | Step 97951263 / 1000000001 | TPS 18373.7 | ETA 13:38:14
Time 01:29:50 | Step 98133174 / 1000000001 | TPS 18191 | ETA 13:46:17
Time 01:30:00 | Step 98316236 / 1000000001 | TPS 18306.1 | ETA 13:40:55
Time 01:30:10 | Step 98496339 / 1000000001 | TPS 18010.2 | ETA 13:54:15
Time 01:30:20 | Step 98676567 / 1000000001 | TPS 18022.8 | ETA 13:53:30
Time 01:30:30 | Step 98855868 / 1000000001 | TPS 17930.1 | ETA 13:57:38
Time 01:30:40 | Step 99036500 / 1000000001 | TPS 18063.1 | ETA 13:51:18
Time 01:30:50 | Step 99216563 / 1000000001 | TPS 18006.3 | ETA 13:53:46
Time 01:31:00 | Step 99396583 / 1000000001 | TPS 18002 | ETA 13:53:48
Time 01:31:10 | Step 99575780 / 1000000001 | TPS 17919.7 | ETA 13:57:27
Time 01:31:20 | Step 99754234 / 1000000001 | TPS 17845.3 | ETA 14:00:47
Time 01:31:30 | Step 99929746 / 1000000001 | TPS 17551.1 | ETA 14:14:42
Time 01:31:40 | Step 100106579 / 1000000001 | TPS 17683.2 | ETA 14:08:09
Time 01:31:50 | Step 100285384 / 1000000001 | TPS 17880.4 | ETA 13:58:38
Time 01:32:00 | Step 100462007 / 1000000001 | TPS 17662.2 | ETA 14:08:50
Time 01:32:10 | Step 100641062 / 1000000001 | TPS 17905.5 | ETA 13:57:08
Time 01:32:20 | Step 100820049 / 1000000001 | TPS 17898.6 | ETA 13:57:17
Time 01:32:30 | Step 100997924 / 1000000001 | TPS 17787.4 | ETA 14:02:21
Time 01:32:40 | Step 101176588 / 1000000001 | TPS 17866.4 | ETA 13:58:28
Time 01:32:50 | Step 101351741 / 1000000001 | TPS 17515.1 | ETA 14:15:07
Time 01:33:00 | Step 101528749 / 1000000001 | TPS 17700.7 | ETA 14:05:58
Time 01:33:10 | Step 101709019 / 1000000001 | TPS 18026.9 | ETA 13:50:30
Time 01:33:20 | Step 101888555 / 1000000001 | TPS 17953.6 | ETA 13:53:44
Time 01:33:30 | Step 102069161 / 1000000001 | TPS 18060.6 | ETA 13:48:37
Time 01:33:40 | Step 102251357 / 1000000001 | TPS 18219.6 | ETA 13:41:13
Time 01:33:50 | Step 102433540 / 1000000001 | TPS 18218.3 | ETA 13:41:07
Time 01:34:00 | Step 102615482 / 1000000001 | TPS 18194.1 | ETA 13:42:02
Time 01:34:10 | Step 102796684 / 1000000001 | TPS 18120.1 | ETA 13:45:14
Time 01:34:20 | Step 102978506 / 1000000001 | TPS 18182.1 | ETA 13:42:15
Time 01:34:30 | Step 103161191 / 1000000001 | TPS 18268.5 | ETA 13:38:12
Time 01:34:40 | Step 103342533 / 1000000001 | TPS 18134.1 | ETA 13:44:05
Time 01:34:50 | Step 103522049 / 1000000001 | TPS 17951.5 | ETA 13:52:18
Time 01:35:00 | Step 103702341 / 1000000001 | TPS 18029.2 | ETA 13:48:33
Time 01:35:10 | Step 103881418 / 1000000001 | TPS 17907.7 | ETA 13:54:01
Time 01:35:20 | Step 104059547 / 1000000001 | TPS 17812.9 | ETA 13:58:17
Time 01:35:30 | Step 104238723 / 1000000001 | TPS 17917.6 | ETA 13:53:13
Time 01:35:40 | Step 104419458 / 1000000001 | TPS 18073.4 | ETA 13:45:52
Time 01:35:50 | Step 104601211 / 1000000001 | TPS 18175.3 | ETA 13:41:04
Time 01:36:00 | Step 104782048 / 1000000001 | TPS 18083.7 | ETA 13:45:04
Time 01:36:10 | Step 104962501 / 1000000001 | TPS 18045.1 | ETA 13:46:40
Time 01:36:20 | Step 105143521 / 1000000001 | TPS 18101.9 | ETA 13:43:54
Time 01:36:30 | Step 105325335 / 1000000001 | TPS 18181.3 | ETA 13:40:08
Time 01:36:40 | Step 105506444 / 1000000001 | TPS 18110.8 | ETA 13:43:09
Time 01:36:50 | Step 105689019 / 1000000001 | TPS 18257.4 | ETA 13:36:23
Time 01:37:00 | Step 105869657 / 1000000001 | TPS 18063.8 | ETA 13:44:58
Time 01:37:10 | Step 106051070 / 1000000001 | TPS 18141.2 | ETA 13:41:17
Time 01:37:20 | Step 106231317 / 1000000001 | TPS 18024.6 | ETA 13:46:26
Time 01:37:30 | Step 106410827 / 1000000001 | TPS 17951 | ETA 13:49:39
Time 01:37:40 | Step 106590652 / 1000000001 | TPS 17982.5 | ETA 13:48:02
Time 01:37:50 | Step 106772636 / 1000000001 | TPS 18198.2 | ETA 13:38:03
Time 01:38:00 | Step 106955112 / 1000000001 | TPS 18247.5 | ETA 13:35:40
Time 01:38:10 | Step 107137654 / 1000000001 | TPS 18254 | ETA 13:35:13
Time 01:38:20 | Step 107318176 / 1000000001 | TPS 18052.2 | ETA 13:44:10
Time 01:38:30 | Step 107497723 / 1000000001 | TPS 17954.7 | ETA 13:48:28
Time 01:38:40 | Step 107678356 / 1000000001 | TPS 18063.1 | ETA 13:43:20
Time 01:38:50 | Step 107860475 / 1000000001 | TPS 18211.9 | ETA 13:36:26
Time 01:39:00 | Step 108040700 / 1000000001 | TPS 18022.4 | ETA 13:44:51
Time 01:39:10 | Step 108220531 / 1000000001 | TPS 17983 | ETA 13:46:30
Time 01:39:20 | Step 108399874 / 1000000001 | TPS 17934.3 | ETA 13:48:34
Time 01:39:30 | Step 108580023 / 1000000001 | TPS 18014.9 | ETA 13:44:42
Time 01:39:40 | Step 108760708 / 1000000001 | TPS 18068.4 | ETA 13:42:05
Time 01:39:50 | Step 108940851 / 1000000001 | TPS 18014.2 | ETA 13:44:24
Time 01:40:00 | Step 109123249 / 1000000001 | TPS 18239.8 | ETA 13:34:02
Time 01:40:10 | Step 109304630 / 1000000001 | TPS 18138 | ETA 13:38:26
Time 01:40:20 | Step 109485096 / 1000000001 | TPS 18046.6 | ETA 13:42:25
Time 01:40:30 | Step 109664983 / 1000000001 | TPS 17988.6 | ETA 13:44:54
Time 01:40:40 | Step 109844427 / 1000000001 | TPS 17944.3 | ETA 13:46:46
Time 01:40:50 | Step 110026132 / 1000000001 | TPS 18170.4 | ETA 13:36:19
Time 01:41:00 | Step 110206705 / 1000000001 | TPS 18057.2 | ETA 13:41:16
Time 01:41:10 | Step 110387667 / 1000000001 | TPS 18096.2 | ETA 13:39:20
Time 01:41:20 | Step 110567447 / 1000000001 | TPS 17977.9 | ETA 13:44:33
Time 01:41:30 | Step 110748859 / 1000000001 | TPS 18141.2 | ETA 13:36:58
Time 01:41:40 | Step 110928616 / 1000000001 | TPS 17975.7 | ETA 13:44:19
Time 01:41:50 | Step 111108135 / 1000000001 | TPS 17951.8 | ETA 13:45:15
Time 01:42:00 | Step 111288017 / 1000000001 | TPS 17988 | ETA 13:43:25
Time 01:42:10 | Step 111466916 / 1000000001 | TPS 17889.9 | ETA 13:47:46
Time 01:42:20 | Step 111648284 / 1000000001 | TPS 18136.6 | ETA 13:36:21
Time 01:42:30 | Step 111827536 / 1000000001 | TPS 17925.2 | ETA 13:45:48
Time 01:42:40 | Step 112005751 / 1000000001 | TPS 17821.5 | ETA 13:50:27
Time 01:42:50 | Step 112185838 / 1000000001 | TPS 18008.7 | ETA 13:41:39
Time 01:43:00 | Step 112366030 / 1000000001 | TPS 18019 | ETA 13:41:00
Time 01:43:10 | Step 112546120 / 1000000001 | TPS 18008.9 | ETA 13:41:18
Time 01:43:20 | Step 112725809 / 1000000001 | TPS 17968.8 | ETA 13:42:58
Time 01:43:30 | Step 112906642 / 1000000001 | TPS 18083.2 | ETA 13:37:36
Time 01:43:40 | Step 113086766 / 1000000001 | TPS 18012.2 | ETA 13:40:39
Time 01:43:50 | Step 113268190 / 1000000001 | TPS 18142.3 | ETA 13:34:36
Time 01:44:00 | Step 113449279 / 1000000001 | TPS 18108.9 | ETA 13:35:56
Time 01:44:10 | Step 113630927 / 1000000001 | TPS 18164.7 | ETA 13:33:16
Time 01:44:20 | Step 113812848 / 1000000001 | TPS 18192.1 | ETA 13:31:52
Time 01:44:30 | Step 113993160 / 1000000001 | TPS 18031.2 | ETA 13:38:57
Time 01:44:40 | Step 114173705 / 1000000001 | TPS 18054.4 | ETA 13:37:44
Time 01:44:50 | Step 114353163 / 1000000001 | TPS 17945.7 | ETA 13:42:31
Time 01:45:00 | Step 114531583 / 1000000001 | TPS 17841.9 | ETA 13:47:08
Time 01:45:10 | Step 114711771 / 1000000001 | TPS 18018.8 | ETA 13:38:51
Time 01:45:20 | Step 114889964 / 1000000001 | TPS 17819.3 | ETA 13:47:51
Time 01:45:30 | Step 115068881 / 1000000001 | TPS 17891.7 | ETA 13:44:20
Time 01:45:40 | Step 115250042 / 1000000001 | TPS 18116.1 | ETA 13:33:57
Time 01:45:50 | Step 115429414 / 1000000001 | TPS 17937 | ETA 13:41:55
Time 01:46:00 | Step 115608557 / 1000000001 | TPS 17914.3 | ETA 13:42:47
Time 01:46:10 | Step 115789441 / 1000000001 | TPS 18088.4 | ETA 13:34:42
Time 01:46:20 | Step 115970409 / 1000000001 | TPS 18096.6 | ETA 13:34:10
Time 01:46:30 | Step 116149784 / 1000000001 | TPS 17937.5 | ETA 13:41:13
Time 01:46:40 | Step 116328395 / 1000000001 | TPS 17861.1 | ETA 13:44:34
Time 01:46:50 | Step 116508467 / 1000000001 | TPS 18007.2 | ETA 13:37:43
Time 01:47:00 | Step 116688238 / 1000000001 | TPS 17977 | ETA 13:38:55
Time 01:47:10 | Step 116868667 / 1000000001 | TPS 18042.8 | ETA 13:35:46
Time 01:47:20 | Step 117049525 / 1000000001 | TPS 18085.6 | ETA 13:33:40
Time 01:47:30 | Step 117229275 / 1000000001 | TPS 17975 | ETA 13:38:31
Time 01:47:40 | Step 117407703 / 1000000001 | TPS 17842.7 | ETA 13:44:25
Time 01:47:50 | Step 117586780 / 1000000001 | TPS 17907.7 | ETA 13:41:15
Time 01:48:00 | Step 117766087 / 1000000001 | TPS 17930.6 | ETA 13:40:02
Time 01:48:10 | Step 117945020 / 1000000001 | TPS 17893.2 | ETA 13:41:35
Time 01:48:20 | Step 118125059 / 1000000001 | TPS 18003.7 | ETA 13:36:22
Time 01:48:30 | Step 118306416 / 1000000001 | TPS 18135.5 | ETA 13:30:16
Time 01:48:40 | Step 118484196 / 1000000001 | TPS 17778 | ETA 13:46:24
Time 01:48:50 | Step 118664296 / 1000000001 | TPS 18010 | ETA 13:35:35
Time 01:49:00 | Step 118843034 / 1000000001 | TPS 17873.7 | ETA 13:41:38
Time 01:49:10 | Step 119022827 / 1000000001 | TPS 17979.3 | ETA 13:36:39
Time 01:49:20 | Step 119203036 / 1000000001 | TPS 18020.9 | ETA 13:34:36
Time 01:49:30 | Step 119385279 / 1000000001 | TPS 18224.2 | ETA 13:25:21
Time 01:49:40 | Step 119567555 / 1000000001 | TPS 18227.6 | ETA 13:25:02
Time 01:49:50 | Step 119749994 / 1000000001 | TPS 18243.9 | ETA 13:24:09
Time 01:50:00 | Step 119929517 / 1000000001 | TPS 17952.2 | ETA 13:37:02
Time 01:50:10 | Step 120108643 / 1000000001 | TPS 17912.6 | ETA 13:38:41
Time 01:50:20 | Step 120289385 / 1000000001 | TPS 18074.2 | ETA 13:31:12
Time 01:50:30 | Step 120470568 / 1000000001 | TPS 18118.2 | ETA 13:29:03
Time 01:50:40 | Step 120649144 / 1000000001 | TPS 17857.5 | ETA 13:40:42
Time 01:50:50 | Step 120828146 / 1000000001 | TPS 17900.2 | ETA 13:38:35
Time 01:51:00 | Step 121006967 / 1000000001 | TPS 17882.1 | ETA 13:39:14
Time 01:51:10 | Step 121184460 / 1000000001 | TPS 17749.3 | ETA 13:45:12
Time 01:51:20 | Step 121361609 / 1000000001 | TPS 17714.9 | ETA 13:46:38
Time 01:51:30 | Step 121540140 / 1000000001 | TPS 17853.1 | ETA 13:40:04
Time 01:51:40 | Step 121719804 / 1000000001 | TPS 17966.3 | ETA 13:34:44
Time 01:51:50 | Step 121900432 / 1000000001 | TPS 18062.7 | ETA 13:30:13
Time 01:52:00 | Step 122082524 / 1000000001 | TPS 18209.2 | ETA 13:23:32
Time 01:52:10 | Step 122264882 / 1000000001 | TPS 18235.7 | ETA 13:22:12
Time 01:52:20 | Step 122445860 / 1000000001 | TPS 18097.7 | ETA 13:28:09
Time 01:52:30 | Step 122626773 / 1000000001 | TPS 18091.2 | ETA 13:28:17
Time 01:52:40 | Step 122808315 / 1000000001 | TPS 18154.2 | ETA 13:25:18
Time 01:52:50 | Step 122989778 / 1000000001 | TPS 18146.2 | ETA 13:25:30
Time 01:53:00 | Step 123170359 / 1000000001 | TPS 18058 | ETA 13:29:16
Time 01:53:10 | Step 123350666 / 1000000001 | TPS 18030.7 | ETA 13:30:19
Time 01:53:20 | Step 123530880 / 1000000001 | TPS 18021.4 | ETA 13:30:34
Time 01:53:30 | Step 123711598 / 1000000001 | TPS 18071.7 | ETA 13:28:09
Time 01:53:40 | Step 123893724 / 1000000001 | TPS 18212.6 | ETA 13:21:44
Time 01:53:50 | Step 124074823 / 1000000001 | TPS 18109.7 | ETA 13:26:07
Time 01:54:00 | Step 124254681 / 1000000001 | TPS 17985.8 | ETA 13:31:31
Time 01:54:10 | Step 124435832 / 1000000001 | TPS 18115 | ETA 13:25:33
Time 01:54:20 | Step 124617234 / 1000000001 | TPS 18140.1 | ETA 13:24:16
Time 01:54:30 | Step 124799823 / 1000000001 | TPS 18258.7 | ETA 13:18:53
Time 01:54:40 | Step 124980206 / 1000000001 | TPS 18038.2 | ETA 13:28:29
Time 01:54:50 | Step 125160601 / 1000000001 | TPS 18039.4 | ETA 13:28:16
Time 01:55:00 | Step 125343102 / 1000000001 | TPS 18250 | ETA 13:18:46
Time 01:55:10 | Step 125524024 / 1000000001 | TPS 18092.2 | ETA 13:25:34
Time 01:55:20 | Step 125702525 / 1000000001 | TPS 17850 | ETA 13:36:20
Time 01:55:30 | Step 125883022 / 1000000001 | TPS 18049.7 | ETA 13:27:08
Time 01:55:40 | Step 126063054 / 1000000001 | TPS 18003.1 | ETA 13:29:03
Time 01:55:50 | Step 126242254 / 1000000001 | TPS 17919.9 | ETA 13:32:38
Time 01:56:00 | Step 126419741 / 1000000001 | TPS 17748.6 | ETA 13:40:19
Time 01:56:10 | Step 126597742 / 1000000001 | TPS 17800 | ETA 13:37:47
Time 01:56:20 | Step 126777936 / 1000000001 | TPS 18019.3 | ETA 13:27:40
Time 01:56:30 | Step 126958035 / 1000000001 | TPS 18009.9 | ETA 13:27:55
Time 01:56:40 | Step 127139177 / 1000000001 | TPS 18114.1 | ETA 13:23:06
Time 01:56:50 | Step 127320602 / 1000000001 | TPS 18142.4 | ETA 13:21:41
Time 01:57:00 | Step 127500555 / 1000000001 | TPS 17995.2 | ETA 13:28:05
Time 01:57:10 | Step 127679260 / 1000000001 | TPS 17870.5 | ETA 13:33:33
Time 01:57:20 | Step 127859090 / 1000000001 | TPS 17982.9 | ETA 13:28:18
Time 01:57:30 | Step 128035059 / 1000000001 | TPS 17596.9 | ETA 13:45:52
Time 01:57:40 | Step 128215501 / 1000000001 | TPS 18043.9 | ETA 13:25:14
Time 01:57:50 | Step 128396159 / 1000000001 | TPS 18065.8 | ETA 13:24:06
Time 01:58:00 | Step 128574989 / 1000000001 | TPS 17882.8 | ETA 13:32:09
Time 01:58:10 | Step 128755501 / 1000000001 | TPS 18051 | ETA 13:24:25
Time 01:58:20 | Step 128936331 / 1000000001 | TPS 18083 | ETA 13:22:50
Time 01:58:30 | Step 129118005 / 1000000001 | TPS 18167.3 | ETA 13:18:56
Time 01:58:40 | Step 129300286 / 1000000001 | TPS 18228.1 | ETA 13:16:06
Time 01:58:50 | Step 129481097 / 1000000001 | TPS 18081 | ETA 13:22:25
Time 01:59:00 | Step 129661084 / 1000000001 | TPS 17998.6 | ETA 13:25:55
Time 01:59:10 | Step 129841463 / 1000000001 | TPS 18037.9 | ETA 13:24:00
Time 01:59:20 | Step 130023082 / 1000000001 | TPS 18161.9 | ETA 13:18:21
Time 01:59:30 | Step 130203132 / 1000000001 | TPS 18004.9 | ETA 13:25:08
Time 01:59:40 | Step 130385070 / 1000000001 | TPS 18193.8 | ETA 13:16:37
Time 01:59:50 | Step 130567423 / 1000000001 | TPS 18235.2 | ETA 13:14:38
Time 02:00:00 | Step 130749381 / 1000000001 | TPS 18195.7 | ETA 13:16:12
Time 02:00:10 | Step 130929376 / 1000000001 | TPS 17999.4 | ETA 13:24:43
Time 02:00:20 | Step 131107446 / 1000000001 | TPS 17806.9 | ETA 13:33:15
Time 02:00:30 | Step 131283666 / 1000000001 | TPS 17622 | ETA 13:41:37
Time 02:00:40 | Step 131463224 / 1000000001 | TPS 17955.7 | ETA 13:26:11
Time 02:00:50 | Step 131642964 / 1000000001 | TPS 17973.9 | ETA 13:25:11
Time 02:01:00 | Step 131823065 / 1000000001 | TPS 18010.1 | ETA 13:23:25
Time 02:01:10 | Step 132002121 / 1000000001 | TPS 17905.6 | ETA 13:27:56
Time 02:01:20 | Step 132180361 / 1000000001 | TPS 17823.9 | ETA 13:31:28
Time 02:01:30 | Step 132360064 / 1000000001 | TPS 17970.2 | ETA 13:24:42
Time 02:01:40 | Step 132540104 / 1000000001 | TPS 18004 | ETA 13:23:01
Time 02:01:50 | Step 132721943 / 1000000001 | TPS 18183.9 | ETA 13:14:54
Time 02:02:00 | Step 132903977 / 1000000001 | TPS 18203.3 | ETA 13:13:53
Time 02:02:10 | Step 133085118 / 1000000001 | TPS 18114 | ETA 13:17:38
Time 02:02:20 | Step 133264719 / 1000000001 | TPS 17959.9 | ETA 13:24:19
Time 02:02:30 | Step 133447020 / 1000000001 | TPS 18230.1 | ETA 13:12:14
Time 02:02:40 | Step 133629588 / 1000000001 | TPS 18256.7 | ETA 13:10:54
Time 02:02:50 | Step 133810807 / 1000000001 | TPS 18121.9 | ETA 13:16:38
Time 02:03:00 | Step 133991785 / 1000000001 | TPS 18097.7 | ETA 13:17:31
Time 02:03:10 | Step 134171973 / 1000000001 | TPS 18018.7 | ETA 13:20:51
Time 02:03:20 | Step 134352216 / 1000000001 | TPS 18024.3 | ETA 13:20:26
Time 02:03:30 | Step 134530672 / 1000000001 | TPS 17845.4 | ETA 13:28:18
Time 02:03:40 | Step 134709811 / 1000000001 | TPS 17913.8 | ETA 13:25:02
Time 02:03:50 | Step 134890158 / 1000000001 | TPS 18034.7 | ETA 13:19:29
Time 02:04:00 | Step 135068871 / 1000000001 | TPS 17871.3 | ETA 13:26:37
Time 02:04:10 | Step 135249211 / 1000000001 | TPS 18033.9 | ETA 13:19:11
Time 02:04:20 | Step 135430902 / 1000000001 | TPS 18169.1 | ETA 13:13:04
Time 02:04:30 | Step 135613581 / 1000000001 | TPS 18267.8 | ETA 13:08:37
Time 02:04:40 | Step 135794689 / 1000000001 | TPS 18110.6 | ETA 13:15:18
Time 02:04:50 | Step 135976411 / 1000000001 | TPS 18172.2 | ETA 13:12:26
Time 02:05:00 | Step 136156833 / 1000000001 | TPS 18042.1 | ETA 13:17:59
Time 02:05:10 | Step 136338775 / 1000000001 | TPS 18194.2 | ETA 13:11:09
Time 02:05:20 | Step 136520441 / 1000000001 | TPS 18166.5 | ETA 13:12:11
Time 02:05:30 | Step 136702483 / 1000000001 | TPS 18204.1 | ETA 13:10:23
Time 02:05:40 | Step 136884383 / 1000000001 | TPS 18190 | ETA 13:10:50
Time 02:05:50 | Step 137065112 / 1000000001 | TPS 18072.8 | ETA 13:15:47
Time 02:06:00 | Step 137240974 / 1000000001 | TPS 17586.2 | ETA 13:37:38
Time 02:06:10 | Step 137415566 / 1000000001 | TPS 17459 | ETA 13:43:26
Time 02:06:20 | Step 137590452 / 1000000001 | TPS 17488.6 | ETA 13:41:52
Time 02:06:30 | Step 137767801 / 1000000001 | TPS 17734.8 | ETA 13:30:18
Time 02:06:40 | Step 137944808 / 1000000001 | TPS 17700.6 | ETA 13:31:42
Time 02:06:50 | Step 138126062 / 1000000001 | TPS 18125.3 | ETA 13:12:30
Time 02:07:00 | Step 138307575 / 1000000001 | TPS 18151.1 | ETA 13:11:13
Time 02:07:10 | Step 138487528 / 1000000001 | TPS 17995.3 | ETA 13:17:54
Time 02:07:20 | Step 138667259 / 1000000001 | TPS 17973 | ETA 13:18:43
Time 02:07:30 | Step 138847340 / 1000000001 | TPS 18008.1 | ETA 13:17:00
Time 02:07:40 | Step 139027585 / 1000000001 | TPS 18024.5 | ETA 13:16:06
Time 02:07:50 | Step 139207522 / 1000000001 | TPS 17993.7 | ETA 13:17:18
Time 02:08:00 | Step 139386932 / 1000000001 | TPS 17940.9 | ETA 13:19:29
Time 02:08:10 | Step 139567203 / 1000000001 | TPS 18027 | ETA 13:15:30
Time 02:08:20 | Step 139747895 / 1000000001 | TPS 18069.1 | ETA 13:13:28
Time 02:08:30 | Step 139928351 / 1000000001 | TPS 18045.6 | ETA 13:14:21
Time 02:08:40 | Step 140108753 / 1000000001 | TPS 18040.2 | ETA 13:14:25
Time 02:08:50 | Step 140289501 / 1000000001 | TPS 18074.8 | ETA 13:12:44
Time 02:09:00 | Step 140470158 / 1000000001 | TPS 18065.7 | ETA 13:12:58
Time 02:09:10 | Step 140651196 / 1000000001 | TPS 18103.8 | ETA 13:11:07
Time 02:09:20 | Step 140832225 / 1000000001 | TPS 18102.9 | ETA 13:11:00
Time 02:09:30 | Step 141014592 / 1000000001 | TPS 18236.6 | ETA 13:05:02
Time 02:09:40 | Step 141194814 / 1000000001 | TPS 18022.2 | ETA 13:14:12
Time 02:09:50 | Step 141374854 / 1000000001 | TPS 18004 | ETA 13:14:50
Time 02:10:00 | Step 141556549 / 1000000001 | TPS 18169.2 | ETA 13:07:27
Time 02:10:10 | Step 141736501 / 1000000001 | TPS 17994.7 | ETA 13:14:55
Time 02:10:20 | Step 141916420 / 1000000001 | TPS 17991.9 | ETA 13:14:52
Time 02:10:30 | Step 142095841 / 1000000001 | TPS 17942.1 | ETA 13:16:55
Time 02:10:40 | Step 142276813 / 1000000001 | TPS 18097.2 | ETA 13:09:55
Time 02:10:50 | Step 142456601 / 1000000001 | TPS 17978.8 | ETA 13:14:57
Time 02:11:00 | Step 142635929 / 1000000001 | TPS 17932.8 | ETA 13:16:49
Time 02:11:10 | Step 142815662 / 1000000001 | TPS 17973.3 | ETA 13:14:52
Time 02:11:20 | Step 142996157 / 1000000001 | TPS 18049.5 | ETA 13:11:20
Time 02:11:30 | Step 143177790 / 1000000001 | TPS 18163.3 | ETA 13:06:13
Time 02:11:40 | Step 143360088 / 1000000001 | TPS 18229.8 | ETA 13:03:11
Time 02:11:50 | Step 143542294 / 1000000001 | TPS 18220.6 | ETA 13:03:25
Time 02:12:00 | Step 143724638 / 1000000001 | TPS 18234.3 | ETA 13:02:39
Time 02:12:10 | Step 143906571 / 1000000001 | TPS 18193.3 | ETA 13:04:15
Time 02:12:20 | Step 144088234 / 1000000001 | TPS 18166.2 | ETA 13:05:15
Time 02:12:30 | Step 144269264 / 1000000001 | TPS 18102.9 | ETA 13:07:50
Time 02:12:40 | Step 144450812 / 1000000001 | TPS 18154.8 | ETA 13:05:25
Time 02:12:50 | Step 144632717 / 1000000001 | TPS 18190.4 | ETA 13:03:42
Time 02:13:00 | Step 144814896 / 1000000001 | TPS 18217.8 | ETA 13:02:22
Time 02:13:10 | Step 144998279 / 1000000001 | TPS 18338.2 | ETA 12:57:03
Time 02:13:20 | Step 145181246 / 1000000001 | TPS 18296.7 | ETA 12:58:39
Time 02:13:30 | Step 145363664 / 1000000001 | TPS 18241.7 | ETA 13:00:50
Time 02:13:40 | Step 145546873 / 1000000001 | TPS 18320.8 | ETA 12:57:18
Time 02:13:50 | Step 145730325 / 1000000001 | TPS 18345 | ETA 12:56:06
Time 02:14:00 | Step 145912907 / 1000000001 | TPS 18258 | ETA 12:59:38
Time 02:14:10 | Step 146094405 / 1000000001 | TPS 18149.7 | ETA 13:04:07
Time 02:14:20 | Step 146274040 / 1000000001 | TPS 17963.4 | ETA 13:12:05
Time 02:14:30 | Step 146454600 / 1000000001 | TPS 18055.9 | ETA 13:07:52
Time 02:14:40 | Step 146636765 / 1000000001 | TPS 18216.4 | ETA 13:00:45
Time 02:14:50 | Step 146819599 / 1000000001 | TPS 18283.3 | ETA 12:57:44
Time 02:15:00 | Step 147000955 / 1000000001 | TPS 18135.4 | ETA 13:03:54
Time 02:15:10 | Step 147182693 / 1000000001 | TPS 18173.8 | ETA 13:02:05
Time 02:15:20 | Step 147364501 / 1000000001 | TPS 18180.4 | ETA 13:01:38
Time 02:15:30 | Step 147548183 / 1000000001 | TPS 18368.2 | ETA 12:53:29
Time 02:15:40 | Step 147727742 / 1000000001 | TPS 17955.9 | ETA 13:11:04
Time 02:15:50 | Step 147906001 / 1000000001 | TPS 17825.7 | ETA 13:16:41
Time 02:16:00 | Step 148084854 / 1000000001 | TPS 17885.2 | ETA 13:13:52
Time 02:16:10 | Step 148263789 / 1000000001 | TPS 17893.4 | ETA 13:13:20
Time 02:16:20 | Step 148442946 / 1000000001 | TPS 17915.6 | ETA 13:12:11
Time 02:16:30 | Step 148621567 / 1000000001 | TPS 17862.1 | ETA 13:14:24
Time 02:16:40 | Step 148801137 / 1000000001 | TPS 17956.9 | ETA 13:10:02
Time 02:16:50 | Step 148978718 / 1000000001 | TPS 17758 | ETA 13:18:43
Time 02:17:00 | Step 149157986 / 1000000001 | TPS 17926.8 | ETA 13:11:02
Time 02:17:10 | Step 149338604 / 1000000001 | TPS 18061.8 | ETA 13:04:57
Time 02:17:20 | Step 149518594 / 1000000001 | TPS 17998.9 | ETA 13:07:31
Time 02:17:30 | Step 149697789 / 1000000001 | TPS 17919.5 | ETA 13:10:51
Time 02:17:40 | Step 149873954 / 1000000001 | TPS 17616.4 | ETA 13:24:17
Time 02:17:50 | Step 150053736 / 1000000001 | TPS 17978.2 | ETA 13:07:56
Time 02:18:00 | Step 150232836 / 1000000001 | TPS 17909.9 | ETA 13:10:46
Time 02:18:10 | Step 150411579 / 1000000001 | TPS 17874.3 | ETA 13:12:11
Time 02:18:20 | Step 150589590 / 1000000001 | TPS 17801.1 | ETA 13:15:16
Time 02:18:30 | Step 150769301 / 1000000001 | TPS 17971.1 | ETA 13:07:35
Time 02:18:40 | Step 150949203 / 1000000001 | TPS 17990.2 | ETA 13:06:35
Time 02:18:50 | Step 151128662 / 1000000001 | TPS 17945.8 | ETA 13:08:21
Time 02:19:00 | Step 151307894 / 1000000001 | TPS 17923.2 | ETA 13:09:11
Time 02:19:10 | Step 151488348 / 1000000001 | TPS 18045.4 | ETA 13:03:40
Time 02:19:20 | Step 151668974 / 1000000001 | TPS 18062.6 | ETA 13:02:46
Time 02:19:30 | Step 151849496 / 1000000001 | TPS 18052.1 | ETA 13:03:03
Time 02:19:40 | Step 152031346 / 1000000001 | TPS 18185 | ETA 12:57:10
Time 02:19:50 | Step 152213831 / 1000000001 | TPS 18248.4 | ETA 12:54:18
Time 02:20:00 | Step 152395297 / 1000000001 | TPS 18146.6 | ETA 12:58:28
Time 02:20:10 | Step 152577089 / 1000000001 | TPS 18179.2 | ETA 12:56:55
Time 02:20:20 | Step 152757036 / 1000000001 | TPS 17994.6 | ETA 13:04:43
Time 02:20:30 | Step 152936892 / 1000000001 | TPS 17985.6 | ETA 13:04:56
Time 02:20:40 | Step 153117946 / 1000000001 | TPS 18105.4 | ETA 12:59:35
Time 02:20:50 | Step 153299189 / 1000000001 | TPS 18124.2 | ETA 12:58:36
Time 02:21:00 | Step 153480419 / 1000000001 | TPS 18123 | ETA 12:58:29
Time 02:21:10 | Step 153662116 / 1000000001 | TPS 18169.7 | ETA 12:56:19
Time 02:21:20 | Step 153843777 / 1000000001 | TPS 18166 | ETA 12:56:19
Time 02:21:30 | Step 154025830 / 1000000001 | TPS 18205.3 | ETA 12:54:28
Time 02:21:40 | Step 154208934 / 1000000001 | TPS 18310.4 | ETA 12:49:51
Time 02:21:50 | Step 154389302 / 1000000001 | TPS 18036.8 | ETA 13:01:22
Time 02:22:00 | Step 154569593 / 1000000001 | TPS 18029.1 | ETA 13:01:32
Time 02:22:10 | Step 154749839 / 1000000001 | TPS 18024.6 | ETA 13:01:34
Time 02:22:20 | Step 154932421 / 1000000001 | TPS 18258 | ETA 12:51:24
Time 02:22:30 | Step 155114650 / 1000000001 | TPS 18222.8 | ETA 12:52:44
Time 02:22:40 | Step 155294550 / 1000000001 | TPS 17990 | ETA 13:02:34
Time 02:22:50 | Step 155472967 / 1000000001 | TPS 17841.6 | ETA 13:08:54
Time 02:23:00 | Step 155653520 / 1000000001 | TPS 18055.3 | ETA 12:59:24
Time 02:23:10 | Step 155834789 / 1000000001 | TPS 18126.7 | ETA 12:56:10
Time 02:23:20 | Step 156016346 / 1000000001 | TPS 18155.6 | ETA 12:54:46
Time 02:23:30 | Step 156198576 / 1000000001 | TPS 18222.9 | ETA 12:51:44
Time 02:23:40 | Step 156382334 / 1000000001 | TPS 18375.7 | ETA 12:45:09
Time 02:23:50 | Step 156563870 / 1000000001 | TPS 18153.6 | ETA 12:54:21
Time 02:24:00 | Step 156743514 / 1000000001 | TPS 17964.3 | ETA 13:02:20
Time 02:24:10 | Step 156924035 / 1000000001 | TPS 18052 | ETA 12:58:22
Time 02:24:20 | Step 157104887 / 1000000001 | TPS 18085.2 | ETA 12:56:46
Time 02:24:30 | Step 157284809 / 1000000001 | TPS 17992.2 | ETA 13:00:37
Time 02:24:40 | Step 157464981 / 1000000001 | TPS 18017.1 | ETA 12:59:23
Time 02:24:50 | Step 157645309 / 1000000001 | TPS 18032.8 | ETA 12:58:32
Time 02:25:00 | Step 157825404 / 1000000001 | TPS 18009.5 | ETA 12:59:22
Time 02:25:10 | Step 158005526 / 1000000001 | TPS 18012.1 | ETA 12:59:05
Time 02:25:20 | Step 158183754 / 1000000001 | TPS 17822.8 | ETA 13:07:12
Time 02:25:30 | Step 158359674 / 1000000001 | TPS 17592 | ETA 13:17:22
Time 02:25:40 | Step 158535645 / 1000000001 | TPS 17597.1 | ETA 13:16:58
Time 02:25:50 | Step 158717025 / 1000000001 | TPS 18137.8 | ETA 12:53:02
Time 02:26:00 | Step 158900553 / 1000000001 | TPS 18352.7 | ETA 12:43:49
Time 02:26:10 | Step 159079743 / 1000000001 | TPS 17919 | ETA 13:02:09
Time 02:26:20 | Step 159259583 / 1000000001 | TPS 17983.9 | ETA 12:59:09
Time 02:26:30 | Step 159436054 / 1000000001 | TPS 17647 | ETA 13:13:52
Time 02:26:40 | Step 159616358 / 1000000001 | TPS 18030.4 | ETA 12:56:49
Time 02:26:50 | Step 159794541 / 1000000001 | TPS 17818.3 | ETA 13:05:54
Time 02:27:00 | Step 159973507 / 1000000001 | TPS 17896.5 | ETA 13:02:17
Time 02:27:10 | Step 160152043 / 1000000001 | TPS 17853.6 | ETA 13:04:00
Time 02:27:20 | Step 160330345 / 1000000001 | TPS 17830.1 | ETA 13:04:52
Time 02:27:30 | Step 160508197 / 1000000001 | TPS 17785.1 | ETA 13:06:41
Time 02:27:40 | Step 160687850 / 1000000001 | TPS 17965.3 | ETA 12:58:38
Time 02:27:50 | Step 160867224 / 1000000001 | TPS 17937.3 | ETA 12:59:41
Time 02:28:00 | Step 161046788 / 1000000001 | TPS 17956.4 | ETA 12:58:41
Time 02:28:10 | Step 161228510 / 1000000001 | TPS 18172.2 | ETA 12:49:16
Time 02:28:20 | Step 161410082 / 1000000001 | TPS 18157.1 | ETA 12:49:45
Time 02:28:30 | Step 161590981 / 1000000001 | TPS 18089.8 | ETA 12:52:26
Time 02:28:40 | Step 161769493 / 1000000001 | TPS 17851.2 | ETA 13:02:36
Time 02:28:50 | Step 161948571 / 1000000001 | TPS 17907.7 | ETA 12:59:58
Time 02:29:00 | Step 162126404 / 1000000001 | TPS 17783.3 | ETA 13:05:15
Time 02:29:10 | Step 162307211 / 1000000001 | TPS 18080.7 | ETA 12:52:10
Time 02:29:20 | Step 162487600 / 1000000001 | TPS 18038.8 | ETA 12:53:48
Time 02:29:30 | Step 162666747 / 1000000001 | TPS 17914.7 | ETA 12:59:00
Time 02:29:40 | Step 162846908 / 1000000001 | TPS 18016.1 | ETA 12:54:26
Time 02:29:50 | Step 163025834 / 1000000001 | TPS 17892.4 | ETA 12:59:38
Time 02:30:00 | Step 163204968 / 1000000001 | TPS 17913.3 | ETA 12:58:33
Time 02:30:10 | Step 163383600 / 1000000001 | TPS 17863.2 | ETA 13:00:34
Time 02:30:20 | Step 163563127 / 1000000001 | TPS 17952.7 | ETA 12:56:31
Time 02:30:30 | Step 163742844 / 1000000001 | TPS 17971.6 | ETA 12:55:32
Time 02:30:40 | Step 163923841 / 1000000001 | TPS 18099.6 | ETA 12:49:52
Time 02:30:50 | Step 164104725 / 1000000001 | TPS 18088.4 | ETA 12:50:11
Time 02:31:00 | Step 164285135 / 1000000001 | TPS 18041 | ETA 12:52:03
Time 02:31:10 | Step 164464995 / 1000000001 | TPS 17986 | ETA 12:54:14
Time 02:31:20 | Step 164644456 / 1000000001 | TPS 17946 | ETA 12:55:48
Time 02:31:30 | Step 164823941 / 1000000001 | TPS 17948.4 | ETA 12:55:32
Time 02:31:40 | Step 165003937 / 1000000001 | TPS 17999.6 | ETA 12:53:09
Time 02:31:50 | Step 165186001 / 1000000001 | TPS 18206 | ETA 12:44:13
Time 02:32:00 | Step 165367353 / 1000000001 | TPS 18135.1 | ETA 12:47:02
Time 02:32:10 | Step 165548290 / 1000000001 | TPS 18093.6 | ETA 12:48:38
Time 02:32:20 | Step 165730052 / 1000000001 | TPS 18176.1 | ETA 12:44:59
Time 02:32:30 | Step 165911337 / 1000000001 | TPS 18128.5 | ETA 12:46:49
Time 02:32:40 | Step 166093291 / 1000000001 | TPS 18195.2 | ETA 12:43:51
Time 02:32:50 | Step 166273726 / 1000000001 | TPS 18043.4 | ETA 12:50:06
Time 02:33:00 | Step 166454121 / 1000000001 | TPS 18039.5 | ETA 12:50:06
Time 02:33:10 | Step 166634657 / 1000000001 | TPS 18053.4 | ETA 12:49:21
Time 02:33:20 | Step 166814883 / 1000000001 | TPS 18022.5 | ETA 12:50:30
Time 02:33:30 | Step 166992464 / 1000000001 | TPS 17758 | ETA 13:01:48
Time 02:33:40 | Step 167171764 / 1000000001 | TPS 17929.8 | ETA 12:54:09
Time 02:33:50 | Step 167348595 / 1000000001 | TPS 17683 | ETA 13:04:47
Time 02:34:00 | Step 167521827 / 1000000001 | TPS 17323.2 | ETA 13:20:55
Time 02:34:10 | Step 167697894 / 1000000001 | TPS 17606.6 | ETA 13:07:52
Time 02:34:20 | Step 167878114 / 1000000001 | TPS 18022 | ETA 12:49:32
Time 02:34:30 | Step 168059514 / 1000000001 | TPS 18140 | ETA 12:44:22
Time 02:34:40 | Step 168240767 / 1000000001 | TPS 18125.3 | ETA 12:44:49
Time 02:34:50 | Step 168422349 / 1000000001 | TPS 18158.1 | ETA 12:43:16
Time 02:35:00 | Step 168603297 / 1000000001 | TPS 18094.8 | ETA 12:45:46
Time 02:35:10 | Step 168783435 / 1000000001 | TPS 18013.8 | ETA 12:49:03
Time 02:35:20 | Step 168963729 / 1000000001 | TPS 18029.4 | ETA 12:48:13
Time 02:35:30 | Step 169143589 / 1000000001 | TPS 17985.9 | ETA 12:49:54
Time 02:35:40 | Step 169322417 / 1000000001 | TPS 17882.8 | ETA 12:54:11
Time 02:35:50 | Step 169500484 / 1000000001 | TPS 17806.5 | ETA 12:57:20
Time 02:36:00 | Step 169680874 / 1000000001 | TPS 18038.9 | ETA 12:47:09
Time 02:36:10 | Step 169862645 / 1000000001 | TPS 18177.1 | ETA 12:41:09
Time 02:36:20 | Step 170043530 / 1000000001 | TPS 18088.4 | ETA 12:44:43
Time 02:36:30 | Step 170224501 / 1000000001 | TPS 18097 | ETA 12:44:11
Time 02:36:40 | Step 170405719 / 1000000001 | TPS 18121.8 | ETA 12:42:58
Time 02:36:50 | Step 170586917 / 1000000001 | TPS 18119.7 | ETA 12:42:54
Time 02:37:00 | Step 170766807 / 1000000001 | TPS 17989 | ETA 12:48:16
Time 02:37:10 | Step 170947722 / 1000000001 | TPS 18091.5 | ETA 12:43:45
Time 02:37:20 | Step 171127811 / 1000000001 | TPS 18008.9 | ETA 12:47:05
Time 02:37:30 | Step 171308011 / 1000000001 | TPS 18019.9 | ETA 12:46:27
Time 02:37:40 | Step 171488837 / 1000000001 | TPS 18082.6 | ETA 12:43:38
Time 02:37:50 | Step 171670661 / 1000000001 | TPS 18182.4 | ETA 12:39:16
Time 02:38:00 | Step 171852701 / 1000000001 | TPS 18203.9 | ETA 12:38:12
Time 02:38:10 | Step 172031681 / 1000000001 | TPS 17898 | ETA 12:51:00
Time 02:38:20 | Step 172211045 / 1000000001 | TPS 17936.3 | ETA 12:49:11
Time 02:38:30 | Step 172390931 / 1000000001 | TPS 17988.5 | ETA 12:46:47
Time 02:38:40 | Step 172570967 / 1000000001 | TPS 18003.6 | ETA 12:45:59
Time 02:38:50 | Step 172750873 / 1000000001 | TPS 17990.5 | ETA 12:46:22
Time 02:39:00 | Step 172930763 / 1000000001 | TPS 17989 | ETA 12:46:16
Time 02:39:10 | Step 173110440 / 1000000001 | TPS 17967.7 | ETA 12:47:00
Time 02:39:20 | Step 173289445 / 1000000001 | TPS 17900.4 | ETA 12:49:44
Time 02:39:30 | Step 173468553 / 1000000001 | TPS 17910.8 | ETA 12:49:07
Time 02:39:40 | Step 173649089 / 1000000001 | TPS 18053.5 | ETA 12:42:52
Time 02:39:50 | Step 173831594 / 1000000001 | TPS 18250.3 | ETA 12:34:28
Time 02:40:00 | Step 174012699 / 1000000001 | TPS 18110.4 | ETA 12:40:08
Time 02:40:10 | Step 174193020 / 1000000001 | TPS 18032.1 | ETA 12:43:16
Time 02:40:20 | Step 174371158 / 1000000001 | TPS 17813.7 | ETA 12:52:28
Time 02:40:30 | Step 174549571 / 1000000001 | TPS 17841.3 | ETA 12:51:06
Time 02:40:40 | Step 174732243 / 1000000001 | TPS 18267.1 | ETA 12:32:57
Time 02:40:50 | Step 174913398 / 1000000001 | TPS 18115.4 | ETA 12:39:06
Time 02:41:00 | Step 175094674 / 1000000001 | TPS 18127.5 | ETA 12:38:25
Time 02:41:10 | Step 175275951 / 1000000001 | TPS 18127.7 | ETA 12:38:15
Time 02:41:20 | Step 175455242 / 1000000001 | TPS 17929 | ETA 12:46:29
Time 02:41:30 | Step 175637469 / 1000000001 | TPS 18222.7 | ETA 12:33:58
Time 02:41:40 | Step 175820104 / 1000000001 | TPS 18263.5 | ETA 12:32:07
Time 02:41:50 | Step 176000177 / 1000000001 | TPS 18007.3 | ETA 12:42:39
Time 02:42:00 | Step 176180963 / 1000000001 | TPS 18078.6 | ETA 12:39:28
Time 02:42:10 | Step 176362470 / 1000000001 | TPS 18150.6 | ETA 12:36:17
Time 02:42:20 | Step 176543890 / 1000000001 | TPS 18142 | ETA 12:36:29
Time 02:42:30 | Step 176723351 / 1000000001 | TPS 17946 | ETA 12:44:35
Time 02:42:40 | Step 176903633 / 1000000001 | TPS 18028 | ETA 12:40:56
Time 02:42:50 | Step 177083913 / 1000000001 | TPS 18028 | ETA 12:40:46
Time 02:43:00 | Step 177264909 / 1000000001 | TPS 18099.4 | ETA 12:37:36
Time 02:43:10 | Step 177445645 / 1000000001 | TPS 18073.5 | ETA 12:38:31
Time 02:43:20 | Step 177628419 / 1000000001 | TPS 18277.3 | ETA 12:29:54
Time 02:43:30 | Step 177811180 / 1000000001 | TPS 18276 | ETA 12:29:47
Time 02:43:40 | Step 177993050 / 1000000001 | TPS 18187 | ETA 12:33:17
Time 02:43:50 | Step 178175380 / 1000000001 | TPS 18233 | ETA 12:31:13
Time 02:44:00 | Step 178358880 / 1000000001 | TPS 18349.9 | ETA 12:26:16
Time 02:44:10 | Step 178539596 / 1000000001 | TPS 18071.6 | ETA 12:37:35
Time 02:44:20 | Step 178720645 / 1000000001 | TPS 18104.8 | ETA 12:36:02
Time 02:44:30 | Step 178901644 / 1000000001 | TPS 18099.9 | ETA 12:36:04
Time 02:44:40 | Step 179081953 / 1000000001 | TPS 18030.9 | ETA 12:38:48
Time 02:44:50 | Step 179262748 / 1000000001 | TPS 18079.5 | ETA 12:36:36
Time 02:45:00 | Step 179443930 / 1000000001 | TPS 18118.1 | ETA 12:34:49
Time 02:45:10 | Step 179624910 / 1000000001 | TPS 18098 | ETA 12:35:29
Time 02:45:20 | Step 179806733 / 1000000001 | TPS 18182.3 | ETA 12:31:49
Time 02:45:30 | Step 179988083 / 1000000001 | TPS 18134.9 | ETA 12:33:37
Time 02:45:40 | Step 180167453 / 1000000001 | TPS 17937 | ETA 12:41:46
Time 02:45:50 | Step 180347493 / 1000000001 | TPS 18004 | ETA 12:38:46
Time 02:46:00 | Step 180526853 / 1000000001 | TPS 17935.9 | ETA 12:41:28
Time 02:46:10 | Step 180707220 / 1000000001 | TPS 18036.7 | ETA 12:37:03
Time 02:46:20 | Step 180887526 / 1000000001 | TPS 18030.4 | ETA 12:37:09
Time 02:46:30 | Step 181064912 / 1000000001 | TPS 17738.6 | ETA 12:49:26
Time 02:46:40 | Step 181241638 / 1000000001 | TPS 17672.5 | ETA 12:52:09
Time 02:46:50 | Step 181416042 / 1000000001 | TPS 17440.4 | ETA 13:02:16
Time 02:47:00 | Step 181590019 / 1000000001 | TPS 17397.7 | ETA 13:04:01
Time 02:47:10 | Step 181769490 / 1000000001 | TPS 17947.1 | ETA 12:39:51
Time 02:47:20 | Step 181950162 / 1000000001 | TPS 18067.1 | ETA 12:34:38
Time 02:47:30 | Step 182130843 / 1000000001 | TPS 18068.1 | ETA 12:34:25
Time 02:47:40 | Step 182312350 / 1000000001 | TPS 18150.7 | ETA 12:30:49
Time 02:47:50 | Step 182493984 / 1000000001 | TPS 18163.4 | ETA 12:30:08
Time 02:48:00 | Step 182676045 / 1000000001 | TPS 18206.1 | ETA 12:28:12
Time 02:48:10 | Step 182856963 / 1000000001 | TPS 18091.8 | ETA 12:32:46
Time 02:48:20 | Step 183038552 / 1000000001 | TPS 18158.7 | ETA 12:29:50
Time 02:48:30 | Step 183219809 / 1000000001 | TPS 18125.6 | ETA 12:31:02
Time 02:48:40 | Step 183395823 / 1000000001 | TPS 17601.4 | ETA 12:53:14
Time 02:48:50 | Step 183572095 / 1000000001 | TPS 17627.1 | ETA 12:51:56
Time 02:49:00 | Step 183749554 / 1000000001 | TPS 17745.9 | ETA 12:46:36
Time 02:49:10 | Step 183924685 / 1000000001 | TPS 17513 | ETA 12:56:38
Time 02:49:20 | Step 184105351 / 1000000001 | TPS 18066.6 | ETA 12:32:40
Time 02:49:30 | Step 184286639 / 1000000001 | TPS 18128.8 | ETA 12:29:55
Time 02:49:40 | Step 184467895 / 1000000001 | TPS 18125.6 | ETA 12:29:53
[...]
Time 14:51:21 | Step 952379834 / 1000000001 | TPS 17686.7 | ETA 00:44:52
Time 14:51:31 | Step 952555801 / 1000000001 | TPS 17596.3 | ETA 00:44:56
Time 14:51:41 | Step 952733499 / 1000000001 | TPS 17769.8 | ETA 00:44:19
Time 14:51:51 | Step 952910762 / 1000000001 | TPS 17726.3 | ETA 00:44:16
Time 14:52:01 | Step 953088179 / 1000000001 | TPS 17741.7 | ETA 00:44:04
Time 14:52:11 | Step 953267316 / 1000000001 | TPS 17913.7 | ETA 00:43:28
Time 14:52:21 | Step 953445403 / 1000000001 | TPS 17808.7 | ETA 00:43:34
Time 14:52:31 | Step 953623046 / 1000000001 | TPS 17764.3 | ETA 00:43:30
Time 14:52:41 | Step 953800714 / 1000000001 | TPS 17766.8 | ETA 00:43:20
Time 14:52:51 | Step 953979507 / 1000000001 | TPS 17879.2 | ETA 00:42:53
Time 14:53:01 | Step 954158038 / 1000000001 | TPS 17853 | ETA 00:42:47
Time 14:53:11 | Step 954335444 / 1000000001 | TPS 17740.6 | ETA 00:42:54
Time 14:53:21 | Step 954514278 / 1000000001 | TPS 17883.4 | ETA 00:42:23
Time 14:53:31 | Step 954692080 / 1000000001 | TPS 17780.1 | ETA 00:42:28
Time 14:53:41 | Step 954868422 / 1000000001 | TPS 17634.2 | ETA 00:42:39
Time 14:53:51 | Step 955042725 / 1000000001 | TPS 17430.3 | ETA 00:42:59
Time 14:54:01 | Step 955219900 / 1000000001 | TPS 17717.5 | ETA 00:42:07
Time 14:54:11 | Step 955396480 / 1000000001 | TPS 17657.9 | ETA 00:42:05
Time 14:54:21 | Step 955573227 / 1000000001 | TPS 17674.6 | ETA 00:41:53
Time 14:54:31 | Step 955751458 / 1000000001 | TPS 17823.1 | ETA 00:41:22
Time 14:54:41 | Step 955929517 / 1000000001 | TPS 17805.8 | ETA 00:41:15
Time 14:54:51 | Step 956106992 / 1000000001 | TPS 17747.5 | ETA 00:41:13
Time 14:55:01 | Step 956284397 / 1000000001 | TPS 17740.5 | ETA 00:41:04
Time 14:55:11 | Step 956460612 / 1000000001 | TPS 17621.4 | ETA 00:41:10
Time 14:55:21 | Step 956637830 / 1000000001 | TPS 17721.7 | ETA 00:40:46
Time 14:55:31 | Step 956816274 / 1000000001 | TPS 17844.4 | ETA 00:40:20
Time 14:55:41 | Step 956992873 / 1000000001 | TPS 17659.7 | ETA 00:40:35
Time 14:55:51 | Step 957168459 / 1000000001 | TPS 17558.5 | ETA 00:40:39
Time 14:56:01 | Step 957345684 / 1000000001 | TPS 17722.5 | ETA 00:40:06
Time 14:56:11 | Step 957523448 / 1000000001 | TPS 17776.3 | ETA 00:39:49
Time 14:56:21 | Step 957702523 / 1000000001 | TPS 17907.4 | ETA 00:39:22
Time 14:56:31 | Step 957881118 / 1000000001 | TPS 17859.4 | ETA 00:39:18
Time 14:56:41 | Step 958057512 / 1000000001 | TPS 17639.4 | ETA 00:39:37
Time 14:56:51 | Step 958234545 / 1000000001 | TPS 17703.2 | ETA 00:39:19
Time 14:57:01 | Step 958411239 / 1000000001 | TPS 17669.4 | ETA 00:39:13
Time 14:57:11 | Step 958589364 / 1000000001 | TPS 17812.4 | ETA 00:38:44
Time 14:57:21 | Step 958767499 / 1000000001 | TPS 17813.5 | ETA 00:38:34
Time 14:57:31 | Step 958944222 / 1000000001 | TPS 17672.3 | ETA 00:38:43
Time 14:57:41 | Step 959120337 / 1000000001 | TPS 17611.4 | ETA 00:38:41
Time 14:57:51 | Step 959298172 / 1000000001 | TPS 17783.5 | ETA 00:38:08
Time 14:58:01 | Step 959477672 / 1000000001 | TPS 17950 | ETA 00:37:37
Time 14:58:11 | Step 959655358 / 1000000001 | TPS 17768.6 | ETA 00:37:50
Time 14:58:21 | Step 959833322 / 1000000001 | TPS 17796.2 | ETA 00:37:37
Time 14:58:31 | Step 960010672 / 1000000001 | TPS 17735 | ETA 00:37:34
Time 14:58:41 | Step 960189104 / 1000000001 | TPS 17843.2 | ETA 00:37:11
Time 14:58:51 | Step 960367904 / 1000000001 | TPS 17879.9 | ETA 00:36:56
Time 14:59:01 | Step 960545974 / 1000000001 | TPS 17806.9 | ETA 00:36:55
Time 14:59:11 | Step 960723001 / 1000000001 | TPS 17702.3 | ETA 00:36:58
Time 14:59:21 | Step 960899037 / 1000000001 | TPS 17603.5 | ETA 00:37:01
Time 14:59:31 | Step 961075549 / 1000000001 | TPS 17651.1 | ETA 00:36:45
Time 14:59:41 | Step 961253539 / 1000000001 | TPS 17798.9 | ETA 00:36:16
Time 14:59:51 | Step 961431718 / 1000000001 | TPS 17817.7 | ETA 00:36:04
Time 15:00:01 | Step 961610365 / 1000000001 | TPS 17864.6 | ETA 00:35:48
Time 15:00:11 | Step 961790469 / 1000000001 | TPS 18010.4 | ETA 00:35:21
Time 15:00:21 | Step 961968724 / 1000000001 | TPS 17825.5 | ETA 00:35:33
Time 15:00:31 | Step 962144851 / 1000000001 | TPS 17612.7 | ETA 00:35:49
Time 15:00:41 | Step 962322714 / 1000000001 | TPS 17786.3 | ETA 00:35:18
Time 15:00:51 | Step 962501709 / 1000000001 | TPS 17899.3 | ETA 00:34:54
Time 15:01:01 | Step 962679174 / 1000000001 | TPS 17746.3 | ETA 00:35:03
Time 15:01:11 | Step 962857376 / 1000000001 | TPS 17820.2 | ETA 00:34:44
Time 15:01:21 | Step 963032543 / 1000000001 | TPS 17516.6 | ETA 00:35:10
Time 15:01:31 | Step 963209887 / 1000000001 | TPS 17734.4 | ETA 00:34:34
Time 15:01:41 | Step 963388290 / 1000000001 | TPS 17840.3 | ETA 00:34:12
Time 15:01:51 | Step 963565812 / 1000000001 | TPS 17752.1 | ETA 00:34:12
Time 15:02:01 | Step 963743060 / 1000000001 | TPS 17724.8 | ETA 00:34:05
Time 15:02:11 | Step 963919805 / 1000000001 | TPS 17674.5 | ETA 00:34:01
Time 15:02:21 | Step 964094463 / 1000000001 | TPS 17465.8 | ETA 00:34:15
Time 15:02:31 | Step 964272356 / 1000000001 | TPS 17789.2 | ETA 00:33:28
Time 15:02:41 | Step 964450628 / 1000000001 | TPS 17827 | ETA 00:33:14
Time 15:02:51 | Step 964628034 / 1000000001 | TPS 17740.6 | ETA 00:33:13
Time 15:03:01 | Step 964805933 / 1000000001 | TPS 17789.9 | ETA 00:32:58
Time 15:03:11 | Step 964983472 / 1000000001 | TPS 17753.9 | ETA 00:32:52
Time 15:03:21 | Step 965159370 / 1000000001 | TPS 17589.7 | ETA 00:33:00
Time 15:03:31 | Step 965336681 / 1000000001 | TPS 17731.1 | ETA 00:32:34
Time 15:03:41 | Step 965513455 / 1000000001 | TPS 17677.4 | ETA 00:32:30
Time 15:03:51 | Step 965690107 / 1000000001 | TPS 17665.2 | ETA 00:32:22
Time 15:04:01 | Step 965867208 / 1000000001 | TPS 17710 | ETA 00:32:07
Time 15:04:11 | Step 966044315 / 1000000001 | TPS 17710.6 | ETA 00:31:57
Time 15:04:21 | Step 966222727 / 1000000001 | TPS 17841.2 | ETA 00:31:33
Time 15:04:31 | Step 966401593 / 1000000001 | TPS 17886.5 | ETA 00:31:18
Time 15:04:41 | Step 966578771 / 1000000001 | TPS 17717.8 | ETA 00:31:26
Time 15:04:51 | Step 966757354 / 1000000001 | TPS 17858.3 | ETA 00:31:01
Time 15:05:01 | Step 966933021 / 1000000001 | TPS 17566.6 | ETA 00:31:22
Time 15:05:11 | Step 967106595 / 1000000001 | TPS 17357.4 | ETA 00:31:35
Time 15:05:21 | Step 967283417 / 1000000001 | TPS 17682.1 | ETA 00:30:50
Time 15:05:31 | Step 967461074 / 1000000001 | TPS 17765.7 | ETA 00:30:31
Time 15:05:41 | Step 967638045 / 1000000001 | TPS 17697 | ETA 00:30:28
Time 15:05:51 | Step 967815340 / 1000000001 | TPS 17729.4 | ETA 00:30:15
Time 15:06:01 | Step 967994020 / 1000000001 | TPS 17868 | ETA 00:29:51
Time 15:06:11 | Step 968171073 / 1000000001 | TPS 17705.2 | ETA 00:29:57
Time 15:06:21 | Step 968349233 / 1000000001 | TPS 17816 | ETA 00:29:36
Time 15:06:31 | Step 968525964 / 1000000001 | TPS 17672.9 | ETA 00:29:40
Time 15:06:41 | Step 968703045 / 1000000001 | TPS 17707.9 | ETA 00:29:27
Time 15:06:51 | Step 968881251 / 1000000001 | TPS 17820.6 | ETA 00:29:06
Time 15:07:01 | Step 969055387 / 1000000001 | TPS 17413.6 | ETA 00:29:37
Time 15:07:11 | Step 969232366 / 1000000001 | TPS 17697.9 | ETA 00:28:58
Time 15:07:21 | Step 969408960 / 1000000001 | TPS 17659.4 | ETA 00:28:52
Time 15:07:31 | Step 969586145 / 1000000001 | TPS 17718.4 | ETA 00:28:36
Time 15:07:41 | Step 969763798 / 1000000001 | TPS 17765.2 | ETA 00:28:21
Time 15:07:51 | Step 969941890 / 1000000001 | TPS 17809.2 | ETA 00:28:07
Time 15:08:01 | Step 970116975 / 1000000001 | TPS 17508.3 | ETA 00:28:26
Time 15:08:11 | Step 970293769 / 1000000001 | TPS 17679.4 | ETA 00:28:00
Time 15:08:21 | Step 970470213 / 1000000001 | TPS 17644.4 | ETA 00:27:53
Time 15:08:31 | Step 970647376 / 1000000001 | TPS 17716.2 | ETA 00:27:36
Time 15:08:41 | Step 970825529 / 1000000001 | TPS 17815.3 | ETA 00:27:17
Time 15:08:51 | Step 971000676 / 1000000001 | TPS 17514.7 | ETA 00:27:35
Time 15:09:01 | Step 971178216 / 1000000001 | TPS 17754 | ETA 00:27:03
Time 15:09:11 | Step 971356037 / 1000000001 | TPS 17782 | ETA 00:26:50
Time 15:09:21 | Step 971534245 / 1000000001 | TPS 17820.7 | ETA 00:26:37
Time 15:09:31 | Step 971711297 / 1000000001 | TPS 17705.2 | ETA 00:26:37
Time 15:09:41 | Step 971888531 / 1000000001 | TPS 17723.3 | ETA 00:26:26
Time 15:09:51 | Step 972061008 / 1000000001 | TPS 17247.5 | ETA 00:26:59
Time 15:10:01 | Step 972238863 / 1000000001 | TPS 17785.5 | ETA 00:26:00
Time 15:10:11 | Step 972418682 / 1000000001 | TPS 17981.8 | ETA 00:25:33
Time 15:10:21 | Step 972596245 / 1000000001 | TPS 17756.2 | ETA 00:25:43
Time 15:10:31 | Step 972773093 / 1000000001 | TPS 17684.8 | ETA 00:25:39
Time 15:10:41 | Step 972949556 / 1000000001 | TPS 17646.3 | ETA 00:25:32
Time 15:10:51 | Step 973124023 / 1000000001 | TPS 17446.6 | ETA 00:25:40
Time 15:11:01 | Step 973301125 / 1000000001 | TPS 17710.1 | ETA 00:25:07
Time 15:11:11 | Step 973478469 / 1000000001 | TPS 17734.4 | ETA 00:24:55
Time 15:11:21 | Step 973655448 / 1000000001 | TPS 17697.9 | ETA 00:24:48
Time 15:11:31 | Step 973831919 / 1000000001 | TPS 17647 | ETA 00:24:42
Time 15:11:41 | Step 974006212 / 1000000001 | TPS 17429.3 | ETA 00:24:51
Time 15:11:51 | Step 974183008 / 1000000001 | TPS 17679.5 | ETA 00:24:20
Time 15:12:01 | Step 974360266 / 1000000001 | TPS 17725.7 | ETA 00:24:06
Time 15:12:11 | Step 974538036 / 1000000001 | TPS 17777 | ETA 00:23:52
Time 15:12:21 | Step 974716510 / 1000000001 | TPS 17847.4 | ETA 00:23:36
Time 15:12:31 | Step 974894998 / 1000000001 | TPS 17848.8 | ETA 00:23:26
Time 15:12:41 | Step 975071793 / 1000000001 | TPS 17679.4 | ETA 00:23:30
Time 15:12:51 | Step 975249716 / 1000000001 | TPS 17792.3 | ETA 00:23:11
Time 15:13:01 | Step 975427431 / 1000000001 | TPS 17771.5 | ETA 00:23:02
Time 15:13:11 | Step 975605059 / 1000000001 | TPS 17762.8 | ETA 00:22:53
Time 15:13:21 | Step 975783814 / 1000000001 | TPS 17875.5 | ETA 00:22:34
Time 15:13:31 | Step 975962540 / 1000000001 | TPS 17872.6 | ETA 00:22:24
Time 15:13:41 | Step 976138530 / 1000000001 | TPS 17598.9 | ETA 00:22:35
Time 15:13:51 | Step 976316045 / 1000000001 | TPS 17751.5 | ETA 00:22:14
Time 15:14:01 | Step 976492069 / 1000000001 | TPS 17602.4 | ETA 00:22:15
Time 15:14:11 | Step 976668476 / 1000000001 | TPS 17640.6 | ETA 00:22:02
Time 15:14:21 | Step 976844614 / 1000000001 | TPS 17613.8 | ETA 00:21:54
Time 15:14:31 | Step 977018906 / 1000000001 | TPS 17429.1 | ETA 00:21:58
Time 15:14:41 | Step 977196033 / 1000000001 | TPS 17712.7 | ETA 00:21:27
Time 15:14:51 | Step 977373500 / 1000000001 | TPS 17746.7 | ETA 00:21:14
Time 15:15:01 | Step 977550658 / 1000000001 | TPS 17715.6 | ETA 00:21:07
Time 15:15:11 | Step 977728428 / 1000000001 | TPS 17777 | ETA 00:20:52
Time 15:15:21 | Step 977906673 / 1000000001 | TPS 17824.5 | ETA 00:20:39
Time 15:15:31 | Step 978082292 / 1000000001 | TPS 17561.9 | ETA 00:20:48
Time 15:15:41 | Step 978261464 / 1000000001 | TPS 17917.2 | ETA 00:20:13
Time 15:15:51 | Step 978438556 / 1000000001 | TPS 17709.2 | ETA 00:20:17
Time 15:16:01 | Step 978616663 / 1000000001 | TPS 17810.6 | ETA 00:20:00
Time 15:16:11 | Step 978794411 / 1000000001 | TPS 17774.7 | ETA 00:19:53
Time 15:16:21 | Step 978970877 / 1000000001 | TPS 17646.5 | ETA 00:19:51
Time 15:16:31 | Step 979146023 / 1000000001 | TPS 17514.5 | ETA 00:19:50
Time 15:16:41 | Step 979324432 / 1000000001 | TPS 17840.9 | ETA 00:19:18
Time 15:16:51 | Step 979503823 / 1000000001 | TPS 17939 | ETA 00:19:02
Time 15:17:01 | Step 979682650 / 1000000001 | TPS 17882.5 | ETA 00:18:56
Time 15:17:11 | Step 979861687 / 1000000001 | TPS 17903.6 | ETA 00:18:44
Time 15:17:21 | Step 980037646 / 1000000001 | TPS 17595.7 | ETA 00:18:54
Time 15:17:31 | Step 980215348 / 1000000001 | TPS 17770.2 | ETA 00:18:33
Time 15:17:41 | Step 980394141 / 1000000001 | TPS 17879.2 | ETA 00:18:16
Time 15:17:51 | Step 980574334 / 1000000001 | TPS 18019.3 | ETA 00:17:58
Time 15:18:01 | Step 980752690 / 1000000001 | TPS 17835.5 | ETA 00:17:59
Time 15:18:11 | Step 980932392 / 1000000001 | TPS 17970.2 | ETA 00:17:41
Time 15:18:21 | Step 981108836 / 1000000001 | TPS 17644.4 | ETA 00:17:50
Time 15:18:31 | Step 981287768 / 1000000001 | TPS 17893.2 | ETA 00:17:25
Time 15:18:41 | Step 981467047 / 1000000001 | TPS 17927.8 | ETA 00:17:13
Time 15:18:51 | Step 981646087 / 1000000001 | TPS 17904 | ETA 00:17:05
Time 15:19:01 | Step 981824228 / 1000000001 | TPS 17814 | ETA 00:17:00
Time 15:19:11 | Step 982002753 / 1000000001 | TPS 17852.4 | ETA 00:16:48
Time 15:19:21 | Step 982180475 / 1000000001 | TPS 17772.2 | ETA 00:16:42
Time 15:19:31 | Step 982358628 / 1000000001 | TPS 17815.2 | ETA 00:16:30
Time 15:19:41 | Step 982536258 / 1000000001 | TPS 17763 | ETA 00:16:23
Time 15:19:51 | Step 982713367 / 1000000001 | TPS 17710.9 | ETA 00:16:16
Time 15:20:01 | Step 982891405 / 1000000001 | TPS 17803.7 | ETA 00:16:00
Time 15:20:11 | Step 983066285 / 1000000001 | TPS 17487.9 | ETA 00:16:08
Time 15:20:21 | Step 983244342 / 1000000001 | TPS 17805.7 | ETA 00:15:41
Time 15:20:31 | Step 983421628 / 1000000001 | TPS 17728.5 | ETA 00:15:35
Time 15:20:41 | Step 983600471 / 1000000001 | TPS 17884.2 | ETA 00:15:16
Time 15:20:51 | Step 983778557 / 1000000001 | TPS 17808.6 | ETA 00:15:10
Time 15:21:01 | Step 983956608 / 1000000001 | TPS 17805.1 | ETA 00:15:01
Time 15:21:11 | Step 984131697 / 1000000001 | TPS 17508.7 | ETA 00:15:06
Time 15:21:21 | Step 984314483 / 1000000001 | TPS 18278.5 | ETA 00:14:18
Time 15:21:31 | Step 984493763 / 1000000001 | TPS 17928 | ETA 00:14:24
Time 15:21:41 | Step 984672396 / 1000000001 | TPS 17863.3 | ETA 00:14:18
Time 15:21:51 | Step 984851962 / 1000000001 | TPS 17956.6 | ETA 00:14:03
Time 15:22:01 | Step 985028061 / 1000000001 | TPS 17609.9 | ETA 00:14:10
Time 15:22:11 | Step 985206964 / 1000000001 | TPS 17890.3 | ETA 00:13:46
Time 15:22:21 | Step 985385353 / 1000000001 | TPS 17838.8 | ETA 00:13:39
Time 15:22:31 | Step 985566104 / 1000000001 | TPS 18075.1 | ETA 00:13:18
Time 15:22:41 | Step 985744911 / 1000000001 | TPS 17880.6 | ETA 00:13:17
Time 15:22:51 | Step 985923549 / 1000000001 | TPS 17863.8 | ETA 00:13:07
Time 15:23:01 | Step 986101493 / 1000000001 | TPS 17794.3 | ETA 00:13:01
Time 15:23:11 | Step 986281080 / 1000000001 | TPS 17958.7 | ETA 00:12:43
Time 15:23:21 | Step 986460164 / 1000000001 | TPS 17908.3 | ETA 00:12:36
Time 15:23:31 | Step 986638754 / 1000000001 | TPS 17858.9 | ETA 00:12:28
Time 15:23:41 | Step 986816413 / 1000000001 | TPS 17765.9 | ETA 00:12:22
Time 15:23:51 | Step 986991756 / 1000000001 | TPS 17534.1 | ETA 00:12:21
Time 15:24:01 | Step 987166488 / 1000000001 | TPS 17473.2 | ETA 00:12:14
Time 15:24:11 | Step 987345050 / 1000000001 | TPS 17856.2 | ETA 00:11:48
Time 15:24:21 | Step 987523646 / 1000000001 | TPS 17859.6 | ETA 00:11:38
Time 15:24:31 | Step 987700558 / 1000000001 | TPS 17691.1 | ETA 00:11:35
Time 15:24:41 | Step 987877292 / 1000000001 | TPS 17673.4 | ETA 00:11:25
Time 15:24:51 | Step 988051698 / 1000000001 | TPS 17440.6 | ETA 00:11:25
Time 15:25:01 | Step 988228216 / 1000000001 | TPS 17651.8 | ETA 00:11:06
Time 15:25:11 | Step 988406026 / 1000000001 | TPS 17780.9 | ETA 00:10:52
Time 15:25:21 | Step 988584071 / 1000000001 | TPS 17804.5 | ETA 00:10:41
Time 15:25:31 | Step 988761642 / 1000000001 | TPS 17757.1 | ETA 00:10:32
Time 15:25:41 | Step 988940416 / 1000000001 | TPS 17877.4 | ETA 00:10:18
Time 15:25:51 | Step 989117004 / 1000000001 | TPS 17658.8 | ETA 00:10:16
Time 15:26:01 | Step 989295087 / 1000000001 | TPS 17808.1 | ETA 00:10:01
Time 15:26:11 | Step 989473015 / 1000000001 | TPS 17792.8 | ETA 00:09:51
Time 15:26:21 | Step 989650013 / 1000000001 | TPS 17699.8 | ETA 00:09:44
Time 15:26:31 | Step 989827900 / 1000000001 | TPS 17788.7 | ETA 00:09:31
Time 15:26:41 | Step 990003211 / 1000000001 | TPS 17531.1 | ETA 00:09:30
Time 15:26:51 | Step 990181138 / 1000000001 | TPS 17792.6 | ETA 00:09:11
Time 15:27:01 | Step 990358708 / 1000000001 | TPS 17756.9 | ETA 00:09:02
Time 15:27:11 | Step 990536803 / 1000000001 | TPS 17809.4 | ETA 00:08:51
Time 15:27:21 | Step 990715319 / 1000000001 | TPS 17851.6 | ETA 00:08:40
Time 15:27:31 | Step 990893782 / 1000000001 | TPS 17846.3 | ETA 00:08:30
Time 15:27:41 | Step 991070420 / 1000000001 | TPS 17663.7 | ETA 00:08:25
Time 15:27:51 | Step 991248561 / 1000000001 | TPS 17814.1 | ETA 00:08:11
Time 15:28:01 | Step 991427579 / 1000000001 | TPS 17901.8 | ETA 00:07:58
Time 15:28:11 | Step 991606290 / 1000000001 | TPS 17871 | ETA 00:07:49
Time 15:28:21 | Step 991785698 / 1000000001 | TPS 17940.8 | ETA 00:07:37
Time 15:28:31 | Step 991965435 / 1000000001 | TPS 17973.6 | ETA 00:07:27
Time 15:28:41 | Step 992141285 / 1000000001 | TPS 17584.8 | ETA 00:07:26
Time 15:28:51 | Step 992318703 / 1000000001 | TPS 17741.8 | ETA 00:07:12
Time 15:29:01 | Step 992497809 / 1000000001 | TPS 17910.5 | ETA 00:06:58
Time 15:29:11 | Step 992674989 / 1000000001 | TPS 17718 | ETA 00:06:53
Time 15:29:21 | Step 992852282 / 1000000001 | TPS 17729.2 | ETA 00:06:43
Time 15:29:31 | Step 993026053 / 1000000001 | TPS 17377.1 | ETA 00:06:41
Time 15:29:41 | Step 993204372 / 1000000001 | TPS 17831.9 | ETA 00:06:21
Time 15:29:51 | Step 993381573 / 1000000001 | TPS 17719.9 | ETA 00:06:13
Time 15:30:01 | Step 993559019 / 1000000001 | TPS 17744.6 | ETA 00:06:02
Time 15:30:11 | Step 993737160 / 1000000001 | TPS 17814 | ETA 00:05:51
Time 15:30:21 | Step 993914726 / 1000000001 | TPS 17756.6 | ETA 00:05:42
Time 15:30:31 | Step 994089725 / 1000000001 | TPS 17499.8 | ETA 00:05:37
Time 15:30:41 | Step 994267423 / 1000000001 | TPS 17769.8 | ETA 00:05:22
Time 15:30:51 | Step 994444593 / 1000000001 | TPS 17717 | ETA 00:05:13
Time 15:31:01 | Step 994621687 / 1000000001 | TPS 17709.4 | ETA 00:05:03
Time 15:31:11 | Step 994798783 / 1000000001 | TPS 17709.5 | ETA 00:04:53
Time 15:31:21 | Step 994975831 / 1000000001 | TPS 17704.8 | ETA 00:04:43
Time 15:31:31 | Step 995152615 / 1000000001 | TPS 17678.3 | ETA 00:04:34
Time 15:31:41 | Step 995332442 / 1000000001 | TPS 17982.7 | ETA 00:04:19
Time 15:31:51 | Step 995511005 / 1000000001 | TPS 17856.2 | ETA 00:04:11
Time 15:32:01 | Step 995689269 / 1000000001 | TPS 17826.4 | ETA 00:04:01
Time 15:32:11 | Step 995867312 / 1000000001 | TPS 17804.3 | ETA 00:03:52
Time 15:32:21 | Step 996041550 / 1000000001 | TPS 17423.6 | ETA 00:03:47
Time 15:32:31 | Step 996220057 / 1000000001 | TPS 17850.7 | ETA 00:03:31
Time 15:32:41 | Step 996397823 / 1000000001 | TPS 17776.6 | ETA 00:03:22
Time 15:32:51 | Step 996576578 / 1000000001 | TPS 17875.5 | ETA 00:03:11
Time 15:33:01 | Step 996755103 / 1000000001 | TPS 17852.5 | ETA 00:03:01
Time 15:33:11 | Step 996932907 / 1000000001 | TPS 17780.4 | ETA 00:02:52
Time 15:33:21 | Step 997107280 / 1000000001 | TPS 17437.3 | ETA 00:02:45
Time 15:33:31 | Step 997283357 / 1000000001 | TPS 17607.6 | ETA 00:02:34
Time 15:33:41 | Step 997459442 / 1000000001 | TPS 17608.4 | ETA 00:02:24
Time 15:33:51 | Step 997635103 / 1000000001 | TPS 17565.9 | ETA 00:02:14
Time 15:34:01 | Step 997812689 / 1000000001 | TPS 17758.6 | ETA 00:02:03
Time 15:34:11 | Step 997990620 / 1000000001 | TPS 17793 | ETA 00:01:52
Time 15:34:21 | Step 998166272 / 1000000001 | TPS 17565.1 | ETA 00:01:44
Time 15:34:31 | Step 998344167 / 1000000001 | TPS 17789.4 | ETA 00:01:33
Time 15:34:41 | Step 998521770 / 1000000001 | TPS 17760.2 | ETA 00:01:23
Time 15:34:51 | Step 998698872 / 1000000001 | TPS 17710.2 | ETA 00:01:13
Time 15:35:01 | Step 998875822 / 1000000001 | TPS 17695 | ETA 00:01:03
Time 15:35:11 | Step 999051527 / 1000000001 | TPS 17570.5 | ETA 00:00:53
Time 15:35:21 | Step 999229001 / 1000000001 | TPS 17747.3 | ETA 00:00:43
Time 15:35:31 | Step 999407063 / 1000000001 | TPS 17806.1 | ETA 00:00:33
Time 15:35:41 | Step 999584752 / 1000000001 | TPS 17768.9 | ETA 00:00:23
Time 15:35:51 | Step 999762778 / 1000000001 | TPS 17802.5 | ETA 00:00:13
Time 15:36:01 | Step 999940865 / 1000000001 | TPS 17808.7 | ETA 00:00:03
Time 15:36:04 | Step 1000000001 / 1000000001 | TPS 17088.7 | ETA 00:00:00
Average TPS: 17805
---------
-- Neighborlist stats:
120423291 normal updates / 3333334 forced updates / 0 dangerous updates
n_neigh_min: 0 / n_neigh_max: 14 / n_neigh_avg: 11.0566
shortest rebuild period: 5
-- Cell list stats:
Dimension: 44, 44, 44
n_min    : 0 / n_max: 7 / n_avg: 0.0792402
** run complete **
